# vtk DataFile Version 5.1
vtk output
ASCII
DATASET STRUCTURED_GRID
DIMENSIONS 10 15 20
POINTS 3000 float
0 0 0 0 0 0 0 0 0 
0 0 0 0 0 0 0 0 0 
0 0 0 0 0 0 0 0 0 
0 0 0 0 0.0714286 0 0 0.0714286 0 
0 0.0714286 0 0 0.0714286 0 0 0.0714286 0 
0 0.0714286 0 0 0.0714286 0 0 0.0714286 0 
0 0.0714286 0 0 0.0714286 0 0 0.142857 0 
0 0.142857 0 0 0.142857 0 0 0.142857 0 
0 0.142857 0 0 0.142857 0 0 0.142857 0 
0 0.142857 0 0 0.142857 0 0 0.142857 0 
0 0.214286 0 0 0.214286 0 0 0.214286 0 
0 0.214286 0 0 0.214286 0 0 0.214286 0 
0 0.214286 0 0 0.214286 0 0 0.214286 0 
0 0.214286 0 0 0.285714 0 0 0.285714 0 
0 0.285714 0 0 0.285714 0 0 0.285714 0 
0 0.285714 0 0 0.285714 0 0 0.285714 0 
0 0.285714 0 0 0.285714 0 0 0.357143 0 
0 0.357143 0 0 0.357143 0 0 0.357143 0 
0 0.357143 0 0 0.357143 0 0 0.357143 0 
0 0.357143 0 0 0.357143 0 0 0.357143 0 
0 0.428571 0 0 0.428571 0 0 0.428571 0 
0 0.428571 0 0 0.428571 0 0 0.428571 0 
0 0.428571 0 0 0.428571 0 0 0.428571 0 
0 0.428571 0 0 0.5 0 0 0.5 0 
0 0.5 0 0 0.5 0 0 0.5 0 
0 0.5 0 0 0.5 0 0 0.5 0 
0 0.5 0 0 0.5 0 0 0.571429 0 
0 0.571429 0 0 0.571429 0 0 0.571429 0 
0 0.571429 0 0 0.571429 0 0 0.571429 0 
0 0.571429 0 0 0.571429 0 0 0.571429 0 
0 0.642857 0 0 0.642857 0 0 0.642857 0 
0 0.642857 0 0 0.642857 0 0 0.642857 0 
0 0.642857 0 0 0.642857 0 0 0.642857 0 
0 0.642857 0 0 0.714286 0 0 0.714286 0 
0 0.714286 0 0 0.714286 0 0 0.714286 0 
0 0.714286 0 0 0.714286 0 0 0.714286 0 
0 0.714286 0 0 0.714286 0 0 0.785714 0 
0 0.785714 0 0 0.785714 0 0 0.785714 0 
0 0.785714 0 0 0.785714 0 0 0.785714 0 
0 0.785714 0 0 0.785714 0 0 0.785714 0 
0 0.857143 0 0 0.857143 0 0 0.857143 0 
0 0.857143 0 0 0.857143 0 0 0.857143 0 
0 0.857143 0 0 0.857143 0 0 0.857143 0 
0 0.857143 0 0 0.928571 0 0 0.928571 0 
0 0.928571 0 0 0.928571 0 0 0.928571 0 
0 0.928571 0 0 0.928571 0 0 0.928571 0 
0 0.928571 0 0 0.928571 0 0 1 0 
0 1 0 0 1 0 0 1 0 
0 1 0 0 1 0 0 1 0 
0 1 0 0 1 0 0 1 0 
0 0 0.105263 0 0 0.105263 0 0 0.105263 
0 0 0.105263 0 0 0.105263 0 0 0.105263 
0 0 0.105263 0 0 0.105263 0 0 0.105263 
0 0 0.105263 0 0.0714286 0.105263 0 0.0714286 0.105263 
0 0.0714286 0.105263 0 0.0714286 0.105263 0 0.0714286 0.105263 
0 0.0714286 0.105263 0 0.0714286 0.105263 0 0.0714286 0.105263 
0 0.0714286 0.105263 0 0.0714286 0.105263 0 0.142857 0.105263 
0 0.142857 0.105263 0 0.142857 0.105263 0 0.142857 0.105263 
0 0.142857 0.105263 0 0.142857 0.105263 0 0.142857 0.105263 
0 0.142857 0.105263 0 0.142857 0.105263 0 0.142857 0.105263 
0 0.214286 0.105263 0 0.214286 0.105263 0 0.214286 0.105263 
0 0.214286 0.105263 0 0.214286 0.105263 0 0.214286 0.105263 
0 0.214286 0.105263 0 0.214286 0.105263 0 0.214286 0.105263 
0 0.214286 0.105263 0 0.285714 0.105263 0 0.285714 0.105263 
0 0.285714 0.105263 0 0.285714 0.105263 0 0.285714 0.105263 
0 0.285714 0.105263 0 0.285714 0.105263 0 0.285714 0.105263 
0 0.285714 0.105263 0 0.285714 0.105263 0 0.357143 0.105263 
0 0.357143 0.105263 0 0.357143 0.105263 0 0.357143 0.105263 
0 0.357143 0.105263 0 0.357143 0.105263 0 0.357143 0.105263 
0 0.357143 0.105263 0 0.357143 0.105263 0 0.357143 0.105263 
0 0.428571 0.105263 0 0.428571 0.105263 0 0.428571 0.105263 
0 0.428571 0.105263 0 0.428571 0.105263 0 0.428571 0.105263 
0 0.428571 0.105263 0 0.428571 0.105263 0 0.428571 0.105263 
0 0.428571 0.105263 0 0.5 0.105263 0 0.5 0.105263 
0 0.5 0.105263 0 0.5 0.105263 0 0.5 0.105263 
0 0.5 0.105263 0 0.5 0.105263 0 0.5 0.105263 
0 0.5 0.105263 0 0.5 0.105263 0 0.571429 0.105263 
0 0.571429 0.105263 0 0.571429 0.105263 0 0.571429 0.105263 
0 0.571429 0.105263 0 0.571429 0.105263 0 0.571429 0.105263 
0 0.571429 0.105263 0 0.571429 0.105263 0 0.571429 0.105263 
0 0.642857 0.105263 0 0.642857 0.105263 0 0.642857 0.105263 
0 0.642857 0.105263 0 0.642857 0.105263 0 0.642857 0.105263 
0 0.642857 0.105263 0 0.642857 0.105263 0 0.642857 0.105263 
0 0.642857 0.105263 0 0.714286 0.105263 0 0.714286 0.105263 
0 0.714286 0.105263 0 0.714286 0.105263 0 0.714286 0.105263 
0 0.714286 0.105263 0 0.714286 0.105263 0 0.714286 0.105263 
0 0.714286 0.105263 0 0.714286 0.105263 0 0.785714 0.105263 
0 0.785714 0.105263 0 0.785714 0.105263 0 0.785714 0.105263 
0 0.785714 0.105263 0 0.785714 0.105263 0 0.785714 0.105263 
0 0.785714 0.105263 0 0.785714 0.105263 0 0.785714 0.105263 
0 0.857143 0.105263 0 0.857143 0.105263 0 0.857143 0.105263 
0 0.857143 0.105263 0 0.857143 0.105263 0 0.857143 0.105263 
0 0.857143 0.105263 0 0.857143 0.105263 0 0.857143 0.105263 
0 0.857143 0.105263 0 0.928571 0.105263 0 0.928571 0.105263 
0 0.928571 0.105263 0 0.928571 0.105263 0 0.928571 0.105263 
0 0.928571 0.105263 0 0.928571 0.105263 0 0.928571 0.105263 
0 0.928571 0.105263 0 0.928571 0.105263 0 1 0.105263 
0 1 0.105263 0 1 0.105263 0 1 0.105263 
0 1 0.105263 0 1 0.105263 0 1 0.105263 
0 1 0.105263 0 1 0.105263 0 1 0.105263 
0 0 0.210526 0 0 0.210526 0 0 0.210526 
0 0 0.210526 0 0 0.210526 0 0 0.210526 
0 0 0.210526 0 0 0.210526 0 0 0.210526 
0 0 0.210526 0 0.0714286 0.210526 0 0.0714286 0.210526 
0 0.0714286 0.210526 0 0.0714286 0.210526 0 0.0714286 0.210526 
0 0.0714286 0.210526 0 0.0714286 0.210526 0 0.0714286 0.210526 
0 0.0714286 0.210526 0 0.0714286 0.210526 0 0.142857 0.210526 
0 0.142857 0.210526 0 0.142857 0.210526 0 0.142857 0.210526 
0 0.142857 0.210526 0 0.142857 0.210526 0 0.142857 0.210526 
0 0.142857 0.210526 0 0.142857 0.210526 0 0.142857 0.210526 
0 0.214286 0.210526 0 0.214286 0.210526 0 0.214286 0.210526 
0 0.214286 0.210526 0 0.214286 0.210526 0 0.214286 0.210526 
0 0.214286 0.210526 0 0.214286 0.210526 0 0.214286 0.210526 
0 0.214286 0.210526 0 0.285714 0.210526 0 0.285714 0.210526 
0 0.285714 0.210526 0 0.285714 0.210526 0 0.285714 0.210526 
0 0.285714 0.210526 0 0.285714 0.210526 0 0.285714 0.210526 
0 0.285714 0.210526 0 0.285714 0.210526 0 0.357143 0.210526 
0 0.357143 0.210526 0 0.357143 0.210526 0 0.357143 0.210526 
0 0.357143 0.210526 0 0.357143 0.210526 0 0.357143 0.210526 
0 0.357143 0.210526 0 0.357143 0.210526 0 0.357143 0.210526 
0 0.428571 0.210526 0 0.428571 0.210526 0 0.428571 0.210526 
0 0.428571 0.210526 0 0.428571 0.210526 0 0.428571 0.210526 
0 0.428571 0.210526 0 0.428571 0.210526 0 0.428571 0.210526 
0 0.428571 0.210526 0 0.5 0.210526 0 0.5 0.210526 
0 0.5 0.210526 0 0.5 0.210526 0 0.5 0.210526 
0 0.5 0.210526 0 0.5 0.210526 0 0.5 0.210526 
0 0.5 0.210526 0 0.5 0.210526 0 0.571429 0.210526 
0 0.571429 0.210526 0 0.571429 0.210526 0 0.571429 0.210526 
0 0.571429 0.210526 0 0.571429 0.210526 0 0.571429 0.210526 
0 0.571429 0.210526 0 0.571429 0.210526 0 0.571429 0.210526 
0 0.642857 0.210526 0 0.642857 0.210526 0 0.642857 0.210526 
0 0.642857 0.210526 0 0.642857 0.210526 0 0.642857 0.210526 
0 0.642857 0.210526 0 0.642857 0.210526 0 0.642857 0.210526 
0 0.642857 0.210526 0 0.714286 0.210526 0 0.714286 0.210526 
0 0.714286 0.210526 0 0.714286 0.210526 0 0.714286 0.210526 
0 0.714286 0.210526 0 0.714286 0.210526 0 0.714286 0.210526 
0 0.714286 0.210526 0 0.714286 0.210526 0 0.785714 0.210526 
0 0.785714 0.210526 0 0.785714 0.210526 0 0.785714 0.210526 
0 0.785714 0.210526 0 0.785714 0.210526 0 0.785714 0.210526 
0 0.785714 0.210526 0 0.785714 0.210526 0 0.785714 0.210526 
0 0.857143 0.210526 0 0.857143 0.210526 0 0.857143 0.210526 
0 0.857143 0.210526 0 0.857143 0.210526 0 0.857143 0.210526 
0 0.857143 0.210526 0 0.857143 0.210526 0 0.857143 0.210526 
0 0.857143 0.210526 0 0.928571 0.210526 0 0.928571 0.210526 
0 0.928571 0.210526 0 0.928571 0.210526 0 0.928571 0.210526 
0 0.928571 0.210526 0 0.928571 0.210526 0 0.928571 0.210526 
0 0.928571 0.210526 0 0.928571 0.210526 0 1 0.210526 
0 1 0.210526 0 1 0.210526 0 1 0.210526 
0 1 0.210526 0 1 0.210526 0 1 0.210526 
0 1 0.210526 0 1 0.210526 0 1 0.210526 
0 0 0.315789 0 0 0.315789 0 0 0.315789 
0 0 0.315789 0 0 0.315789 0 0 0.315789 
0 0 0.315789 0 0 0.315789 0 0 0.315789 
0 0 0.315789 0 0.0714286 0.315789 0 0.0714286 0.315789 
0 0.0714286 0.315789 0 0.0714286 0.315789 0 0.0714286 0.315789 
0 0.0714286 0.315789 0 0.0714286 0.315789 0 0.0714286 0.315789 
0 0.0714286 0.315789 0 0.0714286 0.315789 0 0.142857 0.315789 
0 0.142857 0.315789 0 0.142857 0.315789 0 0.142857 0.315789 
0 0.142857 0.315789 0 0.142857 0.315789 0 0.142857 0.315789 
0 0.142857 0.315789 0 0.142857 0.315789 0 0.142857 0.315789 
0 0.214286 0.315789 0 0.214286 0.315789 0 0.214286 0.315789 
0 0.214286 0.315789 0 0.214286 0.315789 0 0.214286 0.315789 
0 0.214286 0.315789 0 0.214286 0.315789 0 0.214286 0.315789 
0 0.214286 0.315789 0 0.285714 0.315789 0 0.285714 0.315789 
0 0.285714 0.315789 0 0.285714 0.315789 0 0.285714 0.315789 
0 0.285714 0.315789 0 0.285714 0.315789 0 0.285714 0.315789 
0 0.285714 0.315789 0 0.285714 0.315789 0 0.357143 0.315789 
0 0.357143 0.315789 0 0.357143 0.315789 0 0.357143 0.315789 
0 0.357143 0.315789 0 0.357143 0.315789 0 0.357143 0.315789 
0 0.357143 0.315789 0 0.357143 0.315789 0 0.357143 0.315789 
0 0.428571 0.315789 0 0.428571 0.315789 0 0.428571 0.315789 
0 0.428571 0.315789 0 0.428571 0.315789 0 0.428571 0.315789 
0 0.428571 0.315789 0 0.428571 0.315789 0 0.428571 0.315789 
0 0.428571 0.315789 0 0.5 0.315789 0 0.5 0.315789 
0 0.5 0.315789 0 0.5 0.315789 0 0.5 0.315789 
0 0.5 0.315789 0 0.5 0.315789 0 0.5 0.315789 
0 0.5 0.315789 0 0.5 0.315789 0 0.571429 0.315789 
0 0.571429 0.315789 0 0.571429 0.315789 0 0.571429 0.315789 
0 0.571429 0.315789 0 0.571429 0.315789 0 0.571429 0.315789 
0 0.571429 0.315789 0 0.571429 0.315789 0 0.571429 0.315789 
0 0.642857 0.315789 0 0.642857 0.315789 0 0.642857 0.315789 
0 0.642857 0.315789 0 0.642857 0.315789 0 0.642857 0.315789 
0 0.642857 0.315789 0 0.642857 0.315789 0 0.642857 0.315789 
0 0.642857 0.315789 0 0.714286 0.315789 0 0.714286 0.315789 
0 0.714286 0.315789 0 0.714286 0.315789 0 0.714286 0.315789 
0 0.714286 0.315789 0 0.714286 0.315789 0 0.714286 0.315789 
0 0.714286 0.315789 0 0.714286 0.315789 0 0.785714 0.315789 
0 0.785714 0.315789 0 0.785714 0.315789 0 0.785714 0.315789 
0 0.785714 0.315789 0 0.785714 0.315789 0 0.785714 0.315789 
0 0.785714 0.315789 0 0.785714 0.315789 0 0.785714 0.315789 
[...]
POINT_DATA 3000
FIELD FieldData 5
unknown 1 3000 double
7 7 7 7 7 7 7 7 7 
7 7 7 7 7 7 7 7 7 
7 7 7 7 7 7 7 7 7 
7 7 7 7 7 7 7 7 7 
7 7 7 7 7 7 7 7 7 
7 7 7 7 7 7 7 7 7 
7 7 7 7 7 7 7 7 7 
7 7 7 7 7 7 7 7 7 
7 7 7 7 7 7 7 7 7 
7 7 7 7 7 7 7 7 7 
7 7 7 7 7 7 7 7 7 
7 7 7 7 7 7 7 7 7 
7 7 7 7 7 7 7 7 7 
7 7 7 7 7 7 7 7 7 
7 7 7 7 7 7 7 7 7 
7 7 7 7 7 7 7 7 7 
7 7 7 7 7 7 7 1.7008106375 0.21192946576 
-0.29803492649 -0.50148455608 -0.59006852165 -0.63021285249 -0.64895775359 -0.66710743032 -1 7 3.7210587904 
1.6660047268 0.60141441006 0.076324250293 -0.1780390775 -0.29989679211 -0.35845038073 -0.40730940848 -1 7 
4.8732167535 2.8457036103 1.4642989925 0.64734512422 0.20015590819 -0.032926190988 -0.1515198478 -0.24041016424 -1 
7 5.5347025905 3.7170647216 2.2133729441 1.1872172879 0.56190609949 0.20817531747 0.016723091899 -0.11966676457 
-1 7 5.9155462422 4.3248791862 2.8155100703 1.6656903335 0.89990513126 0.43410016492 0.16673637229 
-0.021085536074 -1 7 6.1348730447 4.7323856223 3.2718713207 2.0645385799 1.201337874 0.64297162408 
0.30513483023 0.066210626512 -1 7 6.2610207564 4.9976240792 3.602204362 2.3799242336 1.4570809652 
0.82935288282 0.43187207986 0.14591888871 -1 7 6.3334175683 5.1662980179 3.8326795691 2.6184887478 
1.6642533678 0.98892038866 0.54474630499 0.21831745814 -1 7 6.3748562939 5.2715624521 3.9887278143 
2.7923426382 1.8253542977 1.1201073569 0.64181798469 0.28253552247 -1 7 6.3985073007 5.3362371523 
4.09178192 2.9151099776 1.9462445432 1.2240205226 0.72236678347 0.33776137304 -1 7 6.4119666262 
5.3754531024 4.15842263 2.9995033333 2.0341917482 1.3036244175 0.78697354682 0.3837339301 -1 7 
6.4196029032 5.3989612838 4.2007403577 3.0561745199 2.096443393 1.3627912438 0.83717192978 0.42079158991 -1 
7 6.4239144154 5.4128833531 4.2271248758 3.0933472821 2.1393020037 1.4054177054 0.87487691213 0.44961487313 
-1 7 6.426276594 5.4208186052 4.2428315138 3.1164541147 2.1670699076 1.4341308978 0.9011997744 
0.47034745739 -1 7 6.4270877542 5.4236050065 4.2484839295 3.1249739761 2.1775466463 1.4451980273 
0.91154398842 0.47862584774 -1 7 1.5461681807 -0.027846457928 -0.57905977813 -0.80235348645 -0.90050181457 
-0.94522671815 -0.9658909772 -0.97643024639 -1 7 3.5344067099 1.321022761 0.15812641877 -0.42114490446 
-0.70363467892 -0.83954677516 -0.90430043009 -0.93750901244 -1 7 4.709451386 2.4980134172 0.97706640323 
0.071532299553 -0.42649145502 -0.68688817355 -0.81852186562 -0.88803633446 -1 7 5.4017207072 3.4022963844 
1.7375100669 0.59602683396 -0.1019605289 -0.49773248486 -0.71083923364 -0.82807309868 -1 7 5.807827331 
4.0485406102 2.3712398179 1.08894844 0.23268451915 -0.28910261641 -0.58731991106 -0.75890110672 -1 7 
6.0449232365 4.4887788294 2.8619157934 1.5131603354 0.54676774937 -0.079272111006 -0.45664916221 -0.68365545637 -1 
7 6.182668275 4.778480205 3.2219317236 1.8549468446 0.8208860036 0.11660894222 -0.32785543265 -0.60660095759 
-1 7 6.2623113822 4.9641459057 3.4753936118 2.1165210586 1.0466654189 0.28861915539 -0.20842053255 
-0.53206431442 -1 7 6.308151741 5.080666617 3.6480782578 2.308605462 1.2240504943 0.43216817959 
-0.10331691349 -0.46358778164 -1 7 6.3344245383 5.1525534926 3.7626246019 2.444951104 1.3580471195 
0.54692635504 -0.014908265905 -0.40350141724 -1 7 6.3494232799 5.1962770251 3.8369347111 2.5390180494 
1.4559624559 0.63535759936 0.056597243228 -0.35288183911 -1 7 6.3579534991 5.2225481133 3.8842340208 
2.6023480486 1.5254807673 0.70134061512 0.11244977779 -0.31177976671 -1 7 6.3627785868 5.2381336479 
3.9137759307 2.6439654682 1.5734432211 0.74900080108 0.15454412861 -0.279665731 -1 7 6.3654256995 
5.2470282961 3.9313839439 2.669868194 1.6045616256 0.78115816987 0.18399320947 -0.25650318737 -1 7 
6.3663353435 5.25015362 3.9377245717 2.6794249376 1.6163103736 0.7935623498 0.19557686967 -0.24724354036 -1 
7 1.541047778 -0.037345533357 -0.59138549949 -0.81631575745 -0.91535439228 -0.96054126212 -0.98140199494 -0.9912589089 
-1 7 3.5252326305 1.3018191044 0.13143903933 -0.4525391666 -0.73771657622 -0.87506584502 -0.94045590565 
-0.97195525671 -1 7 4.6991927361 2.4741720196 0.94152060614 0.027804788772 -0.47526974555 -0.73853086214 
-0.87152806447 -0.93851930335 -1 7 5.3919353543 3.3775280735 1.6981749874 0.54547448229 -0.15999657217 
-0.560288614 -0.77570937686 -0.889998349 -1 7 5.7990247301 4.0247410371 2.3313919881 1.0356859072 
0.16982631848 -0.35811175684 -0.65969302967 -0.82828166665 -1 7 6.0370923623 4.466583536 2.8231956055 
1.4596836577 0.48209164322 -0.1515170932 -0.53327925658 -0.75751121857 -1 7 6.175613035 4.7578627324 
3.1848933085 1.8024852647 0.7561426927 0.043183185016 -0.40656403027 -0.6828959415 -1 7 6.2558123279 
4.9448185552 3.4400062793 2.0654904116 0.98270533793 0.21517619142 -0.28787236652 -0.60950498361 -1 7 
6.3020263172 5.0622938805 3.614065334 2.2589793689 1.1611613505 0.35926660792 -0.18277383868 -0.54141155336 -1 
7 6.3285392743 5.1348432416 3.7296536531 2.3965095383 1.2962100478 0.47475517003 -0.09402053611 -0.48129995502 
-1 7 6.3436875276 5.1790061513 3.8047060846 2.4914907308 1.395020843 0.56390494391 -0.022052907219 
-0.43046845428 -1 7 6.3523085686 5.2055588017 3.8525106504 2.5554847841 1.4652386802 0.63050275859 
0.034253700244 -0.38909693624 -1 7 6.3571876432 5.2213195034 3.8823835397 2.5975615799 1.5137139851 
0.67864435537 0.076734707825 -0.35672551697 -1 7 6.3598654409 5.23031748 3.9001952216 2.6237597037 
1.5451774706 0.71114168397 0.10647237205 -0.333358072 -1 7 6.360785822 5.2334797165 3.9066103351 
2.6334271127 1.5570586629 0.72367962492 0.11817267247 -0.32401318111 -1 7 1.5408576112 -0.037757480513 
-0.59197631769 -0.81702798783 -0.91614080756 -0.96136960854 -0.98224942551 -0.99205925117 -1 7 3.5248003417 
1.3008079209 0.12991980011 -0.45442127794 -0.73982760726 -0.87730906027 -0.94276093772 -0.97412972422 -1 7 
4.6986125673 2.472704553 0.93918875132 0.024804623417 -0.47871779053 -0.74224993207 -0.8753813054 -0.94215775188 -1 
7 5.3913009742 3.3758118232 1.6953004682 0.5416318357 -0.1645308929 -0.56526415649 -0.78091712989 -0.89493020902 
-1 7 5.7983945996 4.0229411062 2.3282364335 1.0313158566 0.1645350068 -0.36402181183 -0.66594804612 
-0.83423130398 -1 7 6.0364922966 4.4647974115 2.8199455633 1.4550431495 0.47633919222 -0.15805233563 
-0.54027392978 -0.76419924324 -1 7 6.1750484326 4.7561327349 3.181654837 1.7977450976 0.75014697514 
0.036266526385 -0.41404563599 -0.6900888188 -1 7 6.2552788384 4.9431529607 3.4368249081 2.0607447524 
0.97660384485 0.20804531437 -0.29565847087 -0.61702983923 -1 7 6.3015164807 5.0606844108 3.6109498849 
2.2542682627 1.1550279333 0.352022746 -0.19074603333 -0.54915203232 -1 7 6.3280458271 5.1332761599 
3.7265950006 2.3918410247 1.2900760549 0.46745167993 -0.10210946608 -0.48918416308 -1 7 6.3432046471 
5.1774680185 3.8016890989 2.4868574211 1.3888933782 0.55656496552 -0.030222214759 -0.43845545243 -1 7 
6.3518320691 5.2040387874 3.8495205512 2.5508743212 1.4591136738 0.62313315434 0.026020974704 -0.39716486997 -1 
7 6.3567147382 5.2198098387 3.8794085834 2.5929623185 1.507584458 0.67124555749 0.068446557177 -0.36486203515 
-1 7 6.3593943776 5.2288130609 3.8972273762 2.6191635245 1.5390389166 0.70371543382 0.098137278838 
-0.34155078571 -1 7 6.3603153508 5.2319769552 3.9036445521 2.628831108 1.5509152444 0.71624098076 
0.10981725095 -0.33222987795 -1 7 1.540849745 -0.037776998321 -0.59200727303 -0.81706803996 -0.91618711877 
-0.96141968066 -0.9823011464 -0.99210756531 -1 7 3.5247796476 1.3007540682 0.12983168582 -0.4545375535 
-0.73996367954 -0.87745719337 -0.94291443385 -0.97427302484 -1 7 4.6985802851 2.4726152773 0.93903566028 
0.024595704433 -0.47896782704 -0.74252584658 -0.87566908489 -0.94242639453 -1 7 5.3912604896 3.3756932855 
1.6950872672 0.54133014515 -0.16490122823 -0.5656793231 -0.78135349727 -0.89533770338 -1 7 5.7983489789 
4.0228007089 2.3279724936 1.0309290076 0.16404791898 -0.36457675478 -0.66653592506 -0.83478052195 -1 7 
6.0364433821 4.4646405079 2.8196389081 1.4545790627 0.47574077887 -0.15874468364 -0.54101282536 -0.76488973489 -1 
7 6.1749969281 4.7559619556 3.1813099799 1.7972084396 0.7494401059 0.035437152029 -0.41493676909 -0.6909216842 
-1 7 6.2552247498 4.9429689321 3.4364432767 2.0601367479 0.9757880824 0.2070761359 -0.29670628144 
-0.61800936112 -1 7 6.3014595468 5.060486828 3.6105313171 2.2535882994 1.1541010839 0.35090926179 
-0.19195694576 -0.55028475682 -1 7 6.3279858073 5.1330646576 3.7261392352 2.3910886116 1.2890364423 
0.4661901365 -0.10348936677 -0.49047665143 -1 7 6.343141461 5.1772426713 3.8011967659 2.4860336665 
1.3877417634 0.55515466649 -0.031773864832 -0.43991178893 -1 7 6.3517658296 5.2038002858 3.8489936046 
2.5499826941 1.4578544079 0.62157806239 0.024299975093 -0.39878451019 -1 7 6.3566457407 5.2195595175 
3.8788504803 2.5920091293 1.5062264399 0.66955588799 0.066566039356 -0.36663724355 -1 7 6.3593231568 
5.2285532135 3.8966440549 2.6181601055 1.5375994808 0.70191351453 0.096122145617 -0.34345857679 -1 7 
6.3602431964 5.2317131052 3.903050607 2.6278064375 1.5494411806 0.71439104663 0.1077442091 -0.33419497385 -1 
7 1.5408489231 -0.037779609177 -0.5920123246 -0.81707549994 -0.91619629971 -0.96142956855 -0.98231074437 -0.99211566169 
-1 7 3.5247770729 1.3007457294 0.12981534565 -0.4545618764 -0.7399937549 -0.87748965917 -0.94294595426 
-0.97429956767 -1 7 4.6985748069 2.4725969749 0.93899894592 0.024540154299 -0.4790372513 -0.74260123273 
-0.87574238079 -0.94248794166 -1 7 5.3912507387 3.3756597918 1.6950185139 0.54122427896 -0.16503521297 
-0.56582599207 -0.78149659742 -0.89545772842 -1 7 5.798333427 4.0227460873 2.3278580696 1.0307498172 
0.1638180911 -0.36483080173 -0.66678523934 -0.83498995265 -1 7 6.0364205139 4.4645587521 2.8194645828 
1.4543016828 0.47538013235 -0.15914775429 -0.54141154902 -0.76522607904 -1 7 6.1749654684 4.7558478316 
3.1810627935 1.7968091724 0.74891383411 0.034841931308 -0.41553125324 -0.69142636215 -1 7 6.2551838594 
4.9428187476 3.4361133701 2.0595962656 0.97506599771 0.20624929763 -0.29754096202 -0.61872356184 -1 7 
6.3014089277 5.0602989017 3.6101132087 2.2528941616 1.153161507 0.34981994461 -0.19306900089 -0.55124471086 -1 
7 6.3279257009 5.1328394025 3.7256322783 2.3902365415 1.2878686488 0.46481971374 -0.1049043038 -0.49170936078 
-1 7 6.3430725606 5.1769823369 3.8006048048 2.4850274643 1.3863466182 0.55349840914 -0.033502881811 
-0.44143205476 -1 7 6.3516891496 5.2035085071 3.8483241152 2.5488331683 1.4562435523 0.61964508001 
0.022260926974 -0.4005933155 -1 7 6.3565625087 5.2192409295 3.8781138078 2.5907331199 1.5044215616 
0.66736920218 0.064237474441 -0.36871970378 -1 7 6.3592349094 5.2282138929 3.8958547153 2.6167834144 
1.5356376772 0.69951833147 0.093551978123 -0.34577235111 -1 7 6.36015289 5.231365229 3.9022393847 
2.6263875954 1.5474131619 0.71190720082 0.10507054057 -0.33660844802 -1 7 1.5408475057 -0.037784350352 
-0.59202164783 -0.81708909136 -0.91621243938 -0.96144601244 -0.98232555898 -0.99212712571 -1 7 3.5247723784 
1.3007299824 0.12978428917 -0.45460727789 -0.74004780987 -0.87754486517 -0.94299579734 -0.97433820494 -1 7 
4.6985638261 2.4725598552 0.9389251287 0.024431365875 -0.4791677618 -0.74273545989 -0.87586433799 -0.94258297056 -1 
7 5.3912296024 3.375587603 1.6948733191 0.5410078744 -0.16529763221 -0.566098611 -0.78174658398 -0.89565400849 
-1 7 5.7982979432 4.0226234841 2.3276082288 1.0303724878 0.1633546302 -0.36531816186 -0.66723720191 
-0.83534818929 -1 7 6.0363668599 4.4643711293 2.8190769114 1.4537077896 0.47464038298 -0.15993619436 
-0.54215202267 -0.76581932534 -1 7 6.1748908132 4.7555836669 3.1805093164 1.7959488433 0.74782655072 
0.03366659933 -0.41664998205 -0.69233300392 -1 7 6.255086745 4.9424712332 3.4353753753 2.05843258 
0.97357389903 0.20461321277 -0.29911970082 -0.62001818946 -1 7 6.3012893478 5.059866539 3.6091833052 
2.2514076786 1.151228625 0.34767073636 -0.19517114493 -0.55298893584 -1 7 6.3277849186 5.1323256012 
3.7245142775 2.3884264514 1.2854836289 0.4621321265 -0.10756762666 -0.49394460472 -1 7 6.3429127661 
5.1763943268 3.7993118922 2.4829097325 1.3835219353 0.55027541659 -0.036736445322 -0.44417549871 -1 7 
6.3515130757 5.2028559827 3.8468761546 2.5464368424 1.4530118518 0.61591543048 0.018476206112 -0.40383687296 -1 
7 6.3563731424 5.218534986 3.8765351145 2.5880971297 1.5008323707 0.66318521638 0.059948535822 -0.37242859861 
-1 7 6.3590356314 5.2274676487 3.8941758807 2.6139607157 1.5317650794 0.69496783628 0.088849442406 
-0.34986835366 -1 7 6.3599495925 5.2306025441 3.9005193791 2.6234874762 1.5434220123 0.70720206107 
0.10019205781 -0.34087025321 -1 7 1.5408435058 -0.037797149086 -0.59204557944 -0.81712221929 -0.91624980922 
-0.96148221938 -0.9823566286 -0.99215014892 -1 7 3.5247591805 1.3006876211 0.12970482124 -0.45471763036 
-0.74017266044 -0.87766616188 -0.94310014475 -0.9744156926 -1 7 4.6985333164 2.4724610601 0.93873804385 
0.024169191536 -0.47946693801 -0.74302844855 -0.87611823885 -0.94277268749 -1 7 5.3911718655 3.3753984146 
1.6945104268 0.54049284795 -0.16589247833 -0.56668778509 -0.78226252813 -0.89604297201 -1 7 5.7982029449 
4.0223080461 2.3269942093 1.0294881185 0.16231856218 -0.36635830564 -0.66815962324 -0.83605113191 -1 7 
6.036226283 4.4638979621 2.8181415649 1.4523392933 0.47301229723 -0.16159501797 -0.54364374849 -0.76696983376 -1 
7 6.1746994281 4.7549309184 3.1791990982 1.794001254 0.74547276088 0.031231364675 -0.41887209436 -0.69406862877 
-1 7 6.2548429812 4.9416294932 3.4336609421 2.0558446048 0.97039727681 0.20127609924 -0.30220985747 
-0.62246294506 -1 7 6.3009950726 5.0588388881 3.6070616561 2.2481581727 1.1471804042 0.34335463265 
-0.19922574369 -0.55623742755 -1 7 6.3274446624 5.1311254756 3.7220059969 2.3845331748 1.2805658401 
0.45681515627 -0.11263151195 -0.49805120013 -1 7 6.3425327106 5.175042207 3.7964552035 2.4784222189 
1.3777816193 0.54398857317 -0.042801300523 -0.44915019129 -1 7 6.3511000912 5.2013759623 3.8437199698 
2.5414265306 1.4465304959 0.60873394058 0.011466822341 -0.40964676508 -1 7 6.3559341296 5.2169522814 
3.873133654 2.5826492374 1.4937167074 0.65522065793 0.052094480754 -0.37899917419 -1 7 6.3585777405 
5.2258094904 3.8905911389 2.6081797601 1.5241573736 0.68638429257 0.080315550922 -0.35706058077 -1 7 
6.35948415 5.2289139967 3.8968601737 2.6175699086 1.5356105176 0.6983596962 0.091371323134 -0.34832675787 -1 
7 1.5408320892 -0.037831819125 -0.59210682256 -0.81720230829 -0.9163352958 -0.96156076745 -0.98242072788 -0.99219560818 
-1 7 3.5247217205 1.3005734278 0.1295023218 -0.45498341132 -0.74045731018 -0.87792851594 -0.9433148406 
-0.97456831695 -1 7 4.6984480811 2.4721984313 0.93826715736 0.023544623689 -0.48014240469 -0.7436566225 
-0.87663652689 -0.94314369524 -1 7 5.3910139502 3.3749049532 1.693612433 0.53928451084 -0.16721712615 
-0.56793533133 -0.78330386368 -0.89679580545 -1 7 5.797949226 4.0215028903 2.3255043389 1.0274500006 
0.16004870243 -0.36852812386 -0.66999605455 -0.83739465924 -1 7 6.035859924 4.4627171796 2.8159187373 
1.4492453632 0.46950804289 -0.16499921781 -0.54656890211 -0.76913809228 -1 7 6.1742124687 4.753338043 
3.1761497357 1.7896831073 0.74049798192 0.026318241031 -0.42316064488 -0.69729126668 -1 7 6.2542366025 
4.9396188287 3.4297505363 2.0502150383 0.96380343037 0.19465721072 -0.30807849415 -0.6269339198 -1 7 
6.3002780197 5.0564322135 3.6023131924 2.2412165292 1.1389217529 0.33493461953 -0.20680534853 -0.56208972608 -1 
7 6.3266307061 5.1283645879 3.716488514 2.3763546595 1.2706948602 0.44660415223 -0.12195582177 -0.50534289045 
-1 7 6.3416379961 5.171980126 3.7902675709 2.4691372926 1.3664297544 0.532089266 -0.053811752264 
-0.45786307359 -1 7 6.3501409614 5.1980690697 3.8369747594 2.531197589 1.4338823248 0.59531884785 
-0.0010947738395 -0.41969466947 -1 7 6.3549258172 5.2134552025 3.8659457437 2.571652847 1.4799889004 
0.64051250492 0.038178814005 -0.39023568851 -1 7 6.3575348018 5.2221765466 3.8830810747 2.5966135448 
1.5096112832 0.67067594243 0.065331885194 -0.36925023439 -1 7 6.3584275716 5.2252271185 3.8892209657 
2.6057728324 1.5207293279 0.68223742376 0.075941260704 -0.3609181342 -1 7 1.5407994403 -0.03792516944 
-0.59226155476 -0.8173923846 -0.91652635585 -0.96172657173 -0.98254894304 -0.9922823581 -1 7 3.5246153019 
1.3002676984 0.12899320238 -0.45561150223 -0.7410911019 -0.87848045811 -0.94374300245 -0.97485878361 -1 7 
4.69821037 2.4715065017 0.93709975737 0.022086751681 -0.48163002232 -0.74496535227 -0.8776611307 -0.94384422172 -1 
7 5.3905840418 3.3736323932 1.6914281082 0.53651148568 -0.17009036427 -0.57049900612 -0.78533705988 -0.89820131503 
-1 7 5.7972765193 4.019475511 2.3219576975 1.0228633652 0.15521212972 -0.37291520103 -0.67352880751 
-0.83986903322 -1 7 6.0349140924 4.4598158126 2.8107448654 1.4424252226 0.46218229252 -0.17176188424 
-0.55210516595 -0.77307163907 -1 7 6.1729869374 4.7495160695 3.1692077082 1.780359453 0.73029736691 
0.01673296254 -0.43114127784 -0.70304599593 -1 7 6.252746035 4.9349006533 3.421034005 2.0383000503 
0.95053612092 0.18197293852 -0.31881656529 -0.63479160269 -1 7 6.2985521786 5.0508978811 3.5919323334 
2.2267963121 1.1225997831 0.31907325069 -0.22044853413 -0.57221576307 -1 7 6.3247073158 5.12212828 
3.7046351117 2.3596516028 1.2515065805 0.42767535214 -0.13848101513 -0.51777261326 -1 7 6.3395565134 
5.1651692421 3.7771758875 2.4504591145 1.3446896386 0.51035206511 -0.073047151602 -0.4725098075 -1 7 
6.3479382096 5.1908080756 3.8228878583 2.5108880252 1.4099754398 0.5711312673 -0.022757408419 -0.43637213776 -1 
7 6.3526338291 5.2058565392 3.8510942068 2.550057297 1.4543288694 0.61429057287 0.014450582693 -0.40867844761 
-1 7 6.3551819626 5.214343836 3.8676886501 2.5740881216 1.4826549786 0.64291636004 0.040009200241 
-0.38908030594 -1 7 6.3560511671 5.217302969 3.8736148934 2.5828757693 1.4932487689 0.65384873402 
0.049959058788 -0.38132734948 -1 7 1.5407058444 -0.038174683189 -0.5926465304 -0.81783368518 -0.91694177481 
-0.96206546202 -0.98279626446 -0.99244142495 -1 7 3.5243126742 1.2994559987 0.12773370019 -0.4570626216 
-0.74246328546 -0.87960436053 -0.94456616499 -0.9753898075 -1 7 4.6975489352 2.4697034023 0.93425784441 
0.018765383255 -0.48481140628 -0.74760143636 -0.87961198568 -0.94511382271 -1 7 5.3894203585 3.3703956318 
1.6862230448 0.53031251285 -0.17613201937 -0.57558520298 -0.7891558584 -0.90071736827 -1 7 5.7955083773 
4.0144532408 2.3137048556 1.0128279304 0.14523806956 -0.38146634324 -0.68005803379 -0.8442337398 -1 7 
6.0324988586 4.4528161203 2.7989941396 1.4278319828 0.44738193515 -0.18469637058 -0.56216020678 -0.77989930001 -1 
7 6.1699408663 4.7405246092 3.1538074001 1.760842606 0.71010740698 -0.0012519234464 -0.44537850867 -0.71286916929 
-1 7 6.2491303144 4.9240540687 3.4021162879 2.0138725239 0.92478961443 0.15861441991 -0.33763714941 
-0.64798254911 -1 7 6.2944538755 5.0384333534 3.5698445571 2.1977928416 1.0915037146 0.29037656855 
-0.2439589331 -0.58894213004 -1 7 6.3202216947 5.1083294388 3.6798498379 2.3266266268 1.2155568687 
0.39398362303 -0.16651024972 -0.5379931302 -1 7 6.334774116 5.1503217988 3.7502067163 2.4140756896 
1.3045592005 0.47222609855 -0.10520499195 -0.49600338047 -1 7 6.3429374527 5.1751707571 3.7942267118 
2.471824267 1.3664074535 0.52925115394 -0.05850989035 -0.46278539294 -1 7 6.3474785905 5.1896482546 
3.8211775836 2.5089485044 1.4080632702 0.56938170977 -0.024279962205 -0.43756661692 -1 7 6.3499249223 
5.1977523557 3.8369103215 2.5315416675 1.4344464888 0.59577364132 -0.00096824876674 -0.4198724252 -1 7 
6.3507554351 5.2005643836 3.8425016801 2.5397632653 1.4442652499 0.60580353267 0.0080629065596 -0.41290588127 -1 
7 1.5404366127 -0.038835800021 -0.59358686203 -0.81883168208 -0.91781592135 -0.96273220097 -0.98325336644 -0.9927197526 
-1 7 3.5234508969 1.2973227821 0.1246779523 -0.46032569853 -0.74533665589 -0.88180619325 -0.94608188997 
-0.97631590613 -1 7 4.6957137609 2.4650674684 0.92749039243 0.011415689421 -0.49138098375 -0.75270301044 
-0.88316559202 -0.94730680605 -1 7 5.3862925217 3.3623002976 1.67412416 0.51688393425 -0.18837508593 