# vtk DataFile Version 5.1
vtk output
ASCII
DATASET STRUCTURED_GRID
DIMENSIONS 10 15 20
POINTS 3000 float
0 0 0 0 0 0 0 0 0 
0 0 0 0 0 0 0 0 0 
0 0 0 0 0 0 0 0 0 
0 0 0 0 0.0714286 0 0 0.0714286 0 
0 0.0714286 0 0 0.0714286 0 0 0.0714286 0 
0 0.0714286 0 0 0.0714286 0 0 0.0714286 0 
0 0.0714286 0 0 0.0714286 0 0 0.142857 0 
0 0.142857 0 0 0.142857 0 0 0.142857 0 
0 0.142857 0 0 0.142857 0 0 0.142857 0 
0 0.142857 0 0 0.142857 0 0 0.142857 0 
0 0.214286 0 0 0.214286 0 0 0.214286 0 
0 0.214286 0 0 0.214286 0 0 0.214286 0 
0 0.214286 0 0 0.214286 0 0 0.214286 0 
0 0.214286 0 0 0.285714 0 0 0.285714 0 
0 0.285714 0 0 0.285714 0 0 0.285714 0 
0 0.285714 0 0 0.285714 0 0 0.285714 0 
0 0.285714 0 0 0.285714 0 0 0.357143 0 
0 0.357143 0 0 0.357143 0 0 0.357143 0 
0 0.357143 0 0 0.357143 0 0 0.357143 0 
0 0.357143 0 0 0.357143 0 0 0.357143 0 
0 0.428571 0 0 0.428571 0 0 0.428571 0 
0 0.428571 0 0 0.428571 0 0 0.428571 0 
0 0.428571 0 0 0.428571 0 0 0.428571 0 
0 0.428571 0 0 0.5 0 0 0.5 0 
0 0.5 0 0 0.5 0 0 0.5 0 
0 0.5 0 0 0.5 0 0 0.5 0 
0 0.5 0 0 0.5 0 0 0.571429 0 
0 0.571429 0 0 0.571429 0 0 0.571429 0 
0 0.571429 0 0 0.571429 0 0 0.571429 0 
0 0.571429 0 0 0.571429 0 0 0.571429 0 
0 0.642857 0 0 0.642857 0 0 0.642857 0 
0 0.642857 0 0 0.642857 0 0 0.642857 0 
0 0.642857 0 0 0.642857 0 0 0.642857 0 
0 0.642857 0 0 0.714286 0 0 0.714286 0 
0 0.714286 0 0 0.714286 0 0 0.714286 0 
0 0.714286 0 0 0.714286 0 0 0.714286 0 
0 0.714286 0 0 0.714286 0 0 0.785714 0 
0 0.785714 0 0 0.785714 0 0 0.785714 0 
0 0.785714 0 0 0.785714 0 0 0.785714 0 
0 0.785714 0 0 0.785714 0 0 0.785714 0 
0 0.857143 0 0 0.857143 0 0 0.857143 0 
0 0.857143 0 0 0.857143 0 0 0.857143 0 
0 0.857143 0 0 0.857143 0 0 0.857143 0 
0 0.857143 0 0 0.928571 0 0 0.928571 0 
0 0.928571 0 0 0.928571 0 0 0.928571 0 
0 0.928571 0 0 0.928571 0 0 0.928571 0 
0 0.928571 0 0 0.928571 0 0 1 0 
0 1 0 0 1 0 0 1 0 
0 1 0 0 1 0 0 1 0 
0 1 0 0 1 0 0 1 0 
0 0 0.105263 0 0 0.105263 0 0 0.105263 
0 0 0.105263 0 0 0.105263 0 0 0.105263 
0 0 0.105263 0 0 0.105263 0 0 0.105263 
0 0 0.105263 0 0.0714286 0.105263 0 0.0714286 0.105263 
0 0.0714286 0.105263 0 0.0714286 0.105263 0 0.0714286 0.105263 
0 0.0714286 0.105263 0 0.0714286 0.105263 0 0.0714286 0.105263 
0 0.0714286 0.105263 0 0.0714286 0.105263 0 0.142857 0.105263 
0 0.142857 0.105263 0 0.142857 0.105263 0 0.142857 0.105263 
0 0.142857 0.105263 0 0.142857 0.105263 0 0.142857 0.105263 
0 0.142857 0.105263 0 0.142857 0.105263 0 0.142857 0.105263 
0 0.214286 0.105263 0 0.214286 0.105263 0 0.214286 0.105263 
0 0.214286 0.105263 0 0.214286 0.105263 0 0.214286 0.105263 
0 0.214286 0.105263 0 0.214286 0.105263 0 0.214286 0.105263 
0 0.214286 0.105263 0 0.285714 0.105263 0 0.285714 0.105263 
0 0.285714 0.105263 0 0.285714 0.105263 0 0.285714 0.105263 
0 0.285714 0.105263 0 0.285714 0.105263 0 0.285714 0.105263 
0 0.285714 0.105263 0 0.285714 0.105263 0 0.357143 0.105263 
0 0.357143 0.105263 0 0.357143 0.105263 0 0.357143 0.105263 
0 0.357143 0.105263 0 0.357143 0.105263 0 0.357143 0.105263 
0 0.357143 0.105263 0 0.357143 0.105263 0 0.357143 0.105263 
0 0.428571 0.105263 0 0.428571 0.105263 0 0.428571 0.105263 
0 0.428571 0.105263 0 0.428571 0.105263 0 0.428571 0.105263 
0 0.428571 0.105263 0 0.428571 0.105263 0 0.428571 0.105263 
0 0.428571 0.105263 0 0.5 0.105263 0 0.5 0.105263 
0 0.5 0.105263 0 0.5 0.105263 0 0.5 0.105263 
0 0.5 0.105263 0 0.5 0.105263 0 0.5 0.105263 
0 0.5 0.105263 0 0.5 0.105263 0 0.571429 0.105263 
0 0.571429 0.105263 0 0.571429 0.105263 0 0.571429 0.105263 
0 0.571429 0.105263 0 0.571429 0.105263 0 0.571429 0.105263 
0 0.571429 0.105263 0 0.571429 0.105263 0 0.571429 0.105263 
0 0.642857 0.105263 0 0.642857 0.105263 0 0.642857 0.105263 
0 0.642857 0.105263 0 0.642857 0.105263 0 0.642857 0.105263 
0 0.642857 0.105263 0 0.642857 0.105263 0 0.642857 0.105263 
0 0.642857 0.105263 0 0.714286 0.105263 0 0.714286 0.105263 
0 0.714286 0.105263 0 0.714286 0.105263 0 0.714286 0.105263 
0 0.714286 0.105263 0 0.714286 0.105263 0 0.714286 0.105263 
0 0.714286 0.105263 0 0.714286 0.105263 0 0.785714 0.105263 
0 0.785714 0.105263 0 0.785714 0.105263 0 0.785714 0.105263 
0 0.785714 0.105263 0 0.785714 0.105263 0 0.785714 0.105263 
0 0.785714 0.105263 0 0.785714 0.105263 0 0.785714 0.105263 
0 0.857143 0.105263 0 0.857143 0.105263 0 0.857143 0.105263 
0 0.857143 0.105263 0 0.857143 0.105263 0 0.857143 0.105263 
0 0.857143 0.105263 0 0.857143 0.105263 0 0.857143 0.105263 
0 0.857143 0.105263 0 0.928571 0.105263 0 0.928571 0.105263 
0 0.928571 0.105263 0 0.928571 0.105263 0 0.928571 0.105263 
0 0.928571 0.105263 0 0.928571 0.105263 0 0.928571 0.105263 
0 0.928571 0.105263 0 0.928571 0.105263 0 1 0.105263 
0 1 0.105263 0 1 0.105263 0 1 0.105263 
0 1 0.105263 0 1 0.105263 0 1 0.105263 
0 1 0.105263 0 1 0.105263 0 1 0.105263 
0 0 0.210526 0 0 0.210526 0 0 0.210526 
0 0 0.210526 0 0 0.210526 0 0 0.210526 
0 0 0.210526 0 0 0.210526 0 0 0.210526 
0 0 0.210526 0 0.0714286 0.210526 0 0.0714286 0.210526 
0 0.0714286 0.210526 0 0.0714286 0.210526 0 0.0714286 0.210526 
0 0.0714286 0.210526 0 0.0714286 0.210526 0 0.0714286 0.210526 
0 0.0714286 0.210526 0 0.0714286 0.210526 0 0.142857 0.210526 
0 0.142857 0.210526 0 0.142857 0.210526 0 0.142857 0.210526 
0 0.142857 0.210526 0 0.142857 0.210526 0 0.142857 0.210526 
0 0.142857 0.210526 0 0.142857 0.210526 0 0.142857 0.210526 
0 0.214286 0.210526 0 0.214286 0.210526 0 0.214286 0.210526 
0 0.214286 0.210526 0 0.214286 0.210526 0 0.214286 0.210526 
0 0.214286 0.210526 0 0.214286 0.210526 0 0.214286 0.210526 
0 0.214286 0.210526 0 0.285714 0.210526 0 0.285714 0.210526 
0 0.285714 0.210526 0 0.285714 0.210526 0 0.285714 0.210526 
0 0.285714 0.210526 0 0.285714 0.210526 0 0.285714 0.210526 
0 0.285714 0.210526 0 0.285714 0.210526 0 0.357143 0.210526 
0 0.357143 0.210526 0 0.357143 0.210526 0 0.357143 0.210526 
0 0.357143 0.210526 0 0.357143 0.210526 0 0.357143 0.210526 
0 0.357143 0.210526 0 0.357143 0.210526 0 0.357143 0.210526 
0 0.428571 0.210526 0 0.428571 0.210526 0 0.428571 0.210526 
0 0.428571 0.210526 0 0.428571 0.210526 0 0.428571 0.210526 
0 0.428571 0.210526 0 0.428571 0.210526 0 0.428571 0.210526 
0 0.428571 0.210526 0 0.5 0.210526 0 0.5 0.210526 
0 0.5 0.210526 0 0.5 0.210526 0 0.5 0.210526 
0 0.5 0.210526 0 0.5 0.210526 0 0.5 0.210526 
0 0.5 0.210526 0 0.5 0.210526 0 0.571429 0.210526 
0 0.571429 0.210526 0 0.571429 0.210526 0 0.571429 0.210526 
0 0.571429 0.210526 0 0.571429 0.210526 0 0.571429 0.210526 
0 0.571429 0.210526 0 0.571429 0.210526 0 0.571429 0.210526 
0 0.642857 0.210526 0 0.642857 0.210526 0 0.642857 0.210526 
0 0.642857 0.210526 0 0.642857 0.210526 0 0.642857 0.210526 
0 0.642857 0.210526 0 0.642857 0.210526 0 0.642857 0.210526 
0 0.642857 0.210526 0 0.714286 0.210526 0 0.714286 0.210526 
0 0.714286 0.210526 0 0.714286 0.210526 0 0.714286 0.210526 
0 0.714286 0.210526 0 0.714286 0.210526 0 0.714286 0.210526 
0 0.714286 0.210526 0 0.714286 0.210526 0 0.785714 0.210526 
0 0.785714 0.210526 0 0.785714 0.210526 0 0.785714 0.210526 
0 0.785714 0.210526 0 0.785714 0.210526 0 0.785714 0.210526 
0 0.785714 0.210526 0 0.785714 0.210526 0 0.785714 0.210526 
0 0.857143 0.210526 0 0.857143 0.210526 0 0.857143 0.210526 
0 0.857143 0.210526 0 0.857143 0.210526 0 0.857143 0.210526 
0 0.857143 0.210526 0 0.857143 0.210526 0 0.857143 0.210526 
0 0.857143 0.210526 0 0.928571 0.210526 0 0.928571 0.210526 
0 0.928571 0.210526 0 0.928571 0.210526 0 0.928571 0.210526 
0 0.928571 0.210526 0 0.928571 0.210526 0 0.928571 0.210526 
0 0.928571 0.210526 0 0.928571 0.210526 0 1 0.210526 
0 1 0.210526 0 1 0.210526 0 1 0.210526 
0 1 0.210526 0 1 0.210526 0 1 0.210526 
0 1 0.210526 0 1 0.210526 0 1 0.210526 
0 0 0.315789 0 0 0.315789 0 0 0.315789 
0 0 0.315789 0 0 0.315789 0 0 0.315789 
0 0 0.315789 0 0 0.315789 0 0 0.315789 
0 0 0.315789 0 0.0714286 0.315789 0 0.0714286 0.315789 
0 0.0714286 0.315789 0 0.0714286 0.315789 0 0.0714286 0.315789 
0 0.0714286 0.315789 0 0.0714286 0.315789 0 0.0714286 0.315789 
0 0.0714286 0.315789 0 0.0714286 0.315789 0 0.142857 0.315789 
0 0.142857 0.315789 0 0.142857 0.315789 0 0.142857 0.315789 
0 0.142857 0.315789 0 0.142857 0.315789 0 0.142857 0.315789 
0 0.142857 0.315789 0 0.142857 0.315789 0 0.142857 0.315789 
0 0.214286 0.315789 0 0.214286 0.315789 0 0.214286 0.315789 
0 0.214286 0.315789 0 0.214286 0.315789 0 0.214286 0.315789 
0 0.214286 0.315789 0 0.214286 0.315789 0 0.214286 0.315789 
0 0.214286 0.315789 0 0.285714 0.315789 0 0.285714 0.315789 
0 0.285714 0.315789 0 0.285714 0.315789 0 0.285714 0.315789 
0 0.285714 0.315789 0 0.285714 0.315789 0 0.285714 0.315789 
0 0.285714 0.315789 0 0.285714 0.315789 0 0.357143 0.315789 
0 0.357143 0.315789 0 0.357143 0.315789 0 0.357143 0.315789 
0 0.357143 0.315789 0 0.357143 0.315789 0 0.357143 0.315789 
0 0.357143 0.315789 0 0.357143 0.315789 0 0.357143 0.315789 
0 0.428571 0.315789 0 0.428571 0.315789 0 0.428571 0.315789 
0 0.428571 0.315789 0 0.428571 0.315789 0 0.428571 0.315789 
0 0.428571 0.315789 0 0.428571 0.315789 0 0.428571 0.315789 
0 0.428571 0.315789 0 0.5 0.315789 0 0.5 0.315789 
0 0.5 0.315789 0 0.5 0.315789 0 0.5 0.315789 
0 0.5 0.315789 0 0.5 0.315789 0 0.5 0.315789 
0 0.5 0.315789 0 0.5 0.315789 0 0.571429 0.315789 
0 0.571429 0.315789 0 0.571429 0.315789 0 0.571429 0.315789 
0 0.571429 0.315789 0 0.571429 0.315789 0 0.571429 0.315789 
0 0.571429 0.315789 0 0.571429 0.315789 0 0.571429 0.315789 
0 0.642857 0.315789 0 0.642857 0.315789 0 0.642857 0.315789 
0 0.642857 0.315789 0 0.642857 0.315789 0 0.642857 0.315789 
0 0.642857 0.315789 0 0.642857 0.315789 0 0.642857 0.315789 
0 0.642857 0.315789 0 0.714286 0.315789 0 0.714286 0.315789 
0 0.714286 0.315789 0 0.714286 0.315789 0 0.714286 0.315789 
0 0.714286 0.315789 0 0.714286 0.315789 0 0.714286 0.315789 
0 0.714286 0.315789 0 0.714286 0.315789 0 0.785714 0.315789 
0 0.785714 0.315789 0 0.785714 0.315789 0 0.785714 0.315789 
0 0.785714 0.315789 0 0.785714 0.315789 0 0.785714 0.315789 
0 0.785714 0.315789 0 0.785714 0.315789 0 0.785714 0.315789 
[...]
POINT_DATA 3000
FIELD FieldData 10
unknown 1 3000 double
7 7 7 7 7 7 7 7 7 
7 7 7 7 7 7 7 7 7 
7 7 7 7 7 7 7 7 7 
7 7 7 7 7 7 7 7 7 
7 7 7 7 7 7 7 7 7 
7 7 7 7 7 7 7 7 7 
7 7 7 7 7 7 7 7 7 
7 7 7 7 7 7 7 7 7 
7 7 7 7 7 7 7 7 7 
7 7 7 7 7 7 7 7 7 
7 7 7 7 7 7 7 7 7 
7 7 7 7 7 7 7 7 7 
7 7 7 7 7 7 7 7 7 
7 7 7 7 7 7 7 7 7 
7 7 7 7 7 7 7 7 7 
7 7 7 7 7 7 7 7 7 
7 7 7 7 7 7 7 1.7229654671 0.25232006623 
-0.25180535396 -0.45899762125 -0.55567898681 -0.60447638682 -0.63060352927 -0.65488306598 -1 7 3.788019674 
1.7917598609 0.74818418673 0.21299505173 -0.066438163687 -0.21592959491 -0.29844670206 -0.3674012991 -1 7 
5.0014345042 3.0993894083 1.7728645243 0.94400721497 0.44828475356 0.15691945019 -0.0145686665 -0.14917742551 -1 
7 5.7312718211 4.1269953999 2.7352174622 1.7083605558 1.0113956693 0.56029080012 0.27482714677 0.053551280975 
-1 7 6.179261032 4.901546657 3.5824953388 2.4618587494 1.6097150751 1.005466149 0.59427779751 
0.2694900276 -1 7 6.4590572897 5.4707638656 4.2937611028 3.1650368285 2.2152842337 1.4827014359 
0.94824529126 0.51046142282 -1 7 6.6363493218 5.8820731068 4.8696494409 3.7914672853 2.7988380844 
1.972237879 1.3285610171 0.77677146169 -1 7 6.7500071503 6.1756497049 5.3228575851 4.3283162574 
3.3368436952 2.4521976138 1.7205919502 1.0614611987 -1 7 6.8235321088 6.3831697153 5.6713561909 
4.7736568141 3.814046691 2.9034869708 2.108006026 1.3538628802 -1 7 6.8714118515 6.528653613 
5.9341688207 5.1329720867 4.2233090983 3.3121968555 2.4760238476 1.6424192923 -1 7 6.9027305705 
6.629885474 6.1290419604 5.4159674881 4.5640771199 3.6701494295 2.8132064365 1.9166386477 -1 7 
6.9232620332 6.6997993709 6.2713145087 5.6340219932 4.8402641989 3.9741105356 3.1118439016 2.1679981535 -1 
7 6.9366816844 6.7475398653 6.3732573285 5.7978850727 5.0574136605 4.2233706146 3.3662878883 2.3889522033 
-1 7 6.9451094824 6.7785762434 6.4421596104 5.9130265447 5.2157578626 4.4115146464 3.5644559288 
2.5654650371 -1 7 6.94824963 6.790353063 6.4688495493 5.9585525236 5.2795941952 4.4887377304 
3.6471141964 2.6400474597 -1 7 1.5700197673 0.015694573242 -0.5293567463 -0.7570197024 -0.86433169934 
-0.91880909767 -0.94777203415 -0.96500732253 -1 7 3.6067100664 1.4569720058 0.31642450368 -0.27473336678 
-0.58561294242 -0.75267689098 -0.84437406053 -0.89958322273 -1 7 4.8485258865 2.773568904 1.3117295729 
0.39163980375 -0.16143658215 -0.4875739097 -0.67870688611 -0.79849811464 -1 7 5.6158212108 3.849552952 
2.3064697097 1.1621739656 0.38271139805 -0.12297007962 -0.44188185138 -0.65286797848 -1 7 6.0960501548 
4.6800569207 3.2111268041 1.9586884414 1.0038876577 0.325714696 -0.13445117798 -0.45784024335 -1 7 
6.400199947 5.2997822621 3.9848101972 2.7205924239 1.6548859881 0.83188730033 0.23301005066 -0.21500959193 -1 
7 6.5948585854 5.7521581437 4.6183906103 3.4088270359 2.293778377 1.3644548991 0.64251848605 0.067708872381 
-1 7 6.720542987 6.0772838793 5.1206309834 4.0035495364 2.8888554168 1.8936772958 1.0725553929 
0.37780370557 -1 7 6.8022626916 6.3082037639 5.5086853607 4.4994585128 3.4198758779 2.3950546737 
1.501782019 0.70055899262 -1 7 6.8556724265 6.4706323326 5.8022734474 4.9009118131 3.8769858522 
2.8511372074 1.9118026994 1.0213664784 -1 7 6.8906988733 6.5839192428 6.0204460095 5.2177893044 
4.2584826376 3.2516419611 2.2886811699 1.3274575273 -1 7 6.9137031273 6.6622868206 6.1799683185 
5.4623034101 4.5681346623 3.5922817529 2.6230990322 1.6086612925 -1 7 6.9287582209 6.7158599823 
6.2943856741 5.6462201903 4.8118139299 3.8718789568 2.9083227918 1.8561474809 -1 7 6.9382209651 
6.7507131887 6.3717671175 5.7755227184 4.9895911825 4.0830227869 3.1305753176 2.0539692998 -1 7 
6.9417480743 6.7639425774 6.4017495626 5.8266592885 5.0612756925 4.1697012366 3.2232958483 2.1375717952 -1 
7 1.5649912078 0.0063571466321 -0.5415418884 -0.77094316394 -0.87928424527 -0.93436053654 -0.96363067518 -0.98022404038 
-1 7 3.5978385859 1.4383211868 0.29025271734 -0.30591763582 -0.61992181706 -0.78886333697 -0.88155817476 
-0.93519958273 -1 7 4.8389355841 2.7510438494 1.2775730106 0.34876394159 -0.2102476833 -0.54019585742 
-0.73350041581 -0.85113647036 -1 7 5.6072033807 3.8272567144 2.2700317055 1.1138503052 0.32551224598 
-0.18630977881 -0.50899589549 -0.71781156396 -1 7 6.0889904123 4.6601829906 3.1762739285 1.909841365 
0.94361268252 0.25691777646 -0.20888726271 -0.53066504143 -1 7 6.3946990641 5.2831099223 3.9535874883 
2.674399576 1.5953989212 0.7617464615 0.15531288246 -0.29209814464 -1 7 6.5906806884 5.7386501915 
4.591513724 3.3669408128 2.2374906254 1.2958196907 0.56454577198 -0.010919952865 -1 7 6.7173973521 
6.066523746 5.098003889 3.9665126791 2.8369822226 1.8282669089 0.99629110086 0.29953198624 -1 7 
6.7998826985 6.2996570827 5.4897977081 4.4671096475 3.3727618062 2.3336866903 1.4283675795 0.62383746991 -1 
7 6.8538413159 6.4637815274 5.7864611422 4.8727067895 3.8344092624 2.7939740924 1.8417234764 0.94682207623 
-1 7 6.8892514752 6.5783206484 6.0070421204 5.193026065 4.2199024591 3.1984158418 2.2219504885 
1.255289223 -1 7 6.9125184783 6.6575855653 6.1683780979 5.4402627857 4.5328700998 3.5424780427 
2.5594216741 1.5387680965 -1 7 6.9277496344 6.7117830708 6.2841110323 5.626237409 4.7791549214 
3.8248643211 2.8472201219 1.7882327771 -1 7 6.9373240567 6.7470440894 6.3623804097 5.756974198 
4.9588029987 4.0380647042 3.0714153564 1.9875751532 -1 7 6.9408928465 6.7604280424 6.3927052209 
5.8086730793 5.0312321671 4.12557255 3.1649278537 2.0718024196 -1 7 1.5648040872 0.0059477824554 
-0.5421387934 -0.77167748841 -0.88011204883 -0.93524870237 -0.96455222593 -0.98110053922 -1 7 3.5974171229 
1.4373214964 0.28871926313 -0.3078642522 -0.62215940366 -0.79129319831 -0.88409694488 -0.93761544341 -1 7 
4.8383828956 2.7496156064 1.2752364746 0.34565743428 -0.21393580749 -0.54428949953 -0.73783656658 -0.85528078436 -1 
7 5.6066230798 3.8256335977 2.2671971895 1.1098858152 0.32062418462 -0.19188399358 -0.51500669944 -0.72360100934 
-1 7 6.0884485295 4.6585542766 3.173242532 1.9053738145 0.93787422859 0.25017117752 -0.21631613188 
-0.53789546626 -1 7 6.3942245107 5.2815871843 3.9505740382 2.6697189436 1.5891256027 0.75412673912 
0.14672778121 -0.30055769743 -1 7 6.5902772218 5.7372762796 4.5886313471 3.3622271895 2.2308981158 
1.2875417761 0.5549947867 -0.020457028763 -1 7 6.7170552872 6.0652949903 5.0952820028 3.9618385237 
2.8301716581 1.8194350115 0.98586127013 0.28897894451 -1 7 6.799587126 6.2985446528 5.4872104312 
4.4624651406 3.365736327 2.3243019388 1.4170441568 0.6122389421 -1 7 6.85357693 6.4627472487 
5.7839540833 4.8680317606 3.8271050537 2.7839617538 1.8294130375 0.93407615611 -1 7 6.8890049818 
6.5773269747 6.0045528864 5.1882392897 4.2122227698 3.1876606478 2.2085155632 1.2412522705 -1 7 
6.9122795275 6.6566010175 6.1658500529 5.4352851892 4.5247164723 3.5308612115 2.544721305 1.5232934806 -1 
7 6.9275110317 6.7107850146 6.2815026115 5.6210113386 4.7704582646 3.8123068629 2.8311641421 1.7712277544 
-1 7 6.9370820135 6.7460217638 6.3596769252 5.7514925703 4.949579169 4.0246165248 3.0540881658 
1.9691389647 -1 7 6.9406485957 6.7593926493 6.3899549214 5.8030708246 5.0217644548 4.1117160311 
3.1470199137 2.0527129191 -1 7 1.5647955793 0.0059253317403 -0.54217736353 -0.77173188489 -0.8801801563 
-0.93532708524 -0.96463633507 -0.98117983664 -1 7 3.5973943418 1.4372580255 0.28860599811 -0.30802816238 
-0.62236814475 -0.79153598383 -0.88435891816 -0.93786259842 -1 7 4.8383458221 2.7495040201 1.2750242679 
0.34533522432 -0.21436031589 -0.54479427621 -0.73838787266 -0.85580230504 -1 7 5.6065731817 3.8254712416 
2.2668668032 1.1093570292 0.31990052132 -0.19276651739 -0.51598447098 -0.72452977736 -1 7 6.0883860501 
4.6583361754 3.1727700135 1.9045792884 0.93674687992 0.24876210769 -0.21790018603 -0.53940793679 -1 7 
6.3941475063 5.2813025742 3.9499245449 2.6685804898 1.5874591529 0.75199753962 0.14430076083 -0.30288895288 -1 
7 6.5901818778 5.7369087529 4.5877588466 3.3606471661 2.2285257847 1.2844528212 0.5514280575 -0.023905914431 
-1 7 6.7169368327 6.0648249817 5.094133838 3.9597070425 2.8269052304 1.8151122666 0.98080938884 
0.28405858825 -1 7 6.79944085 6.2979528033 5.4857344331 4.4596722174 3.3613839213 2.3184595097 
1.4101378624 0.60546087449 -1 7 6.8533990157 6.462017531 5.7821058994 4.8644808597 3.8214922882 
2.7763305597 1.8202931857 0.92505470297 -1 7 6.8887930464 6.5764489608 6.0023018956 5.1838593064 
4.2052130535 3.1780180123 2.1968706484 1.2296409538 -1 7 6.9120329004 6.6555712577 6.1631835546 
5.4300401069 4.516229231 3.5190600162 2.5303274981 1.5088288669 -1 7 6.9272310504 6.7096086316 
6.2784311022 5.614913285 4.7604950144 3.7983193276 2.8139480745 1.7538006311 -1 7 6.936773509 
6.7447193844 6.3562546732 5.7446486055 4.9383110362 4.0086740537 3.0343205051 1.9490090064 -1 7 
6.9403276387 6.7580351211 6.3863785365 5.7958974604 5.0099169509 4.0949007003 3.1261068328 2.0313642985 -1 
7 1.5647932403 0.0059168201001 -0.54219630579 -0.77176386089 -0.88022469929 -0.93538069823 -0.96469347353 -0.98123124389 
-1 7 3.5973866661 1.4372298184 0.28854280587 -0.30813532389 -0.62251791541 -0.79171669627 -0.88455186266 
-0.9380363806 -1 7 4.8383278789 2.7494369723 1.2748720398 0.34507438242 -0.21472787314 -0.54524068636 
-0.73886695197 -0.85623529304 -1 7 5.6065378985 3.8253373577 2.26655852 1.1088223587 0.3191392815 
-0.19369925159 -0.51699283137 -0.72544599483 -1 7 6.0883243162 4.658098811 3.1722160088 1.9036062254 
0.93534545358 0.24702715801 -0.21979275186 -0.5411394595 -1 7 6.3940488349 5.2809187753 3.9490171268 
2.6669661292 1.5851055909 0.74905061128 0.14105307721 -0.30588446666 -1 7 6.5900355142 5.7363334665 
4.5863817699 3.3581656977 2.2248623262 1.2798103838 0.54625490781 -0.028720342926 -1 7 6.7167330344 
6.064016199 5.0921747762 3.9561320497 2.821560097 1.8082547578 0.97307912651 0.27679574462 -1 7 
6.7991720346 6.2968764489 5.4830977103 4.4548012655 3.3540093519 2.3088805801 1.3992122313 0.5950953739 -1 
7 6.853060548 6.4606510983 5.7787228654 4.8581574019 3.8118014027 2.7635887917 1.8055893379 0.91096795784 
-1 7 6.8883835697 6.5747833883 5.9981373441 5.1759883469 4.1930094918 3.1617828099 2.1779210384 
1.2113123776 -1 7 6.9115543063 6.6536113255 6.158238572 5.4205977849 4.5014291152 3.4991505231 
2.5068362115 1.4858990651 -1 7 6.9266885837 6.7073739518 6.2727477296 5.6039610507 4.7431588359 
3.7747616512 2.785875822 1.7261693068 -1 7 6.9361780597 6.7422549506 6.3499469653 5.7324034558 
4.9187741654 3.9819079761 3.0021677429 1.9171458337 -1 7 6.9397093962 6.755471447 6.3797996581 
5.7830872066 4.9894118356 4.0667136637 3.0921355229 1.9976055271 -1 7 1.5647883766 0.0058990825951 
-0.54223511495 -0.77182749359 -0.88031019852 -0.93547956313 -0.96479450273 -0.98131867198 -1 7 3.5973704048 
1.4371703842 0.28841244942 -0.30834957273 -0.62280644229 -0.79205103316 -0.88489417731 -0.93833307804 -1 7 
4.8382888016 2.7492932545 1.2745546201 0.34454905223 -0.21544002234 -0.54607101654 -0.73972190142 -0.85697974181 -1 
7 5.6064597793 3.8250475954 2.2659122875 1.1077422964 0.31766122504 -0.19543799617 -0.51879782953 -0.72702831152 
-1 7 6.0881871153 4.6575848842 3.1710566601 1.9016457488 0.93263174804 0.24379996743 -0.22317678562 
-0.54413079272 -1 7 6.3938308028 5.2800935428 3.9471323774 2.6637377708 1.5805798405 0.7436024842 
0.13527473821 -0.3110408419 -1 7 6.5897158962 5.7351110284 4.5835542502 3.3532572672 2.2178887384 
1.2713058154 0.53712386425 -0.036952234478 -1 7 6.7162946989 6.0623225836 5.0882079958 3.9491528198 
2.8115088368 1.7958322963 0.95957158015 0.26448819458 -1 7 6.7986034393 6.2946582956 5.4778392013 
4.4454271049 3.3403263837 2.2917428207 1.3803382391 0.5777122313 -1 7 6.852356719 6.4578807455 
5.7720799667 4.8461657322 3.7940687389 2.7410876834 1.7804951793 0.88760887405 -1 7 6.8875460803 
6.571459983 5.9900837344 5.1612778195 4.1709862445 3.1334863198 2.1459781784 1.1812699933 -1 7 
6.9105905723 6.6497590038 6.1488133846 5.4031946059 4.4750742819 3.464889886 2.4677146305 1.4487438773 -1 
7 6.9256114183 6.703040976 6.2620570577 5.5840306677 4.7126652883 3.7346995063 2.7396507393 1.6818756357 
-1 7 6.9350089654 6.7375288315 6.3382082937 5.7103506719 4.8847535822 3.9368288321 2.9497134572 
1.8665202012 -1 7 6.9385012166 6.7505773974 6.3676105267 5.7601157067 4.953853287 4.0194308515 
3.0369261869 1.9441636172 -1 7 1.564776574 0.0058577923452 -0.54232121559 -0.77196184581 -0.8804821147 
-0.9356691897 -0.96497982911 -0.98147309513 -1 7 3.5973311059 1.4370325388 0.28812418994 -0.30880062028 
-0.623385099 -0.79269083442 -0.88552083369 -0.93885617726 -1 7 4.8381955033 2.7489635353 1.2738594467 
0.34345253329 -0.2168574391 -0.5476492227 -0.74127756512 -0.85828516238 -1 7 5.6062764447 3.824393029 
2.264516436 1.1055155928 0.31475178538 -0.19871015891 -0.52205303196 -0.72978071914 -1 7 6.0878715952 
4.6564451663 3.168593855 1.8976642254 0.92736205272 0.23780083053 -0.22921215542 -0.54928173498 -1 7 
6.3933402751 5.2782999477 3.943201471 2.6572901223 1.5719244894 0.73361495283 0.1250995803 -0.31981672836 -1 
7 6.5890127924 5.7325088913 4.5777691201 3.343625736 2.2047670111 1.2559469886 0.5212653319 -0.050784740303 
-1 7 6.7153515887 6.0587915333 5.0802471254 3.9357013722 2.7929087705 1.7737430027 0.93644759348 
0.24408290016 -1 7 6.7974058753 6.2901257894 5.4674835959 4.4276772976 3.3154233296 2.2617404144 
1.3484959122 0.54928435979 -1 7 6.8509037709 6.4523269791 5.7592327429 4.8238455047 3.7623143558 
2.7022953953 1.7387675786 0.84992742658 -1 7 6.885848925 6.5649148429 5.9747706858 5.1343379436 
4.1321552254 3.0854185933 2.0936043581 1.1334517139 -1 7 6.9086700064 6.6422940563 6.1311702022 
5.3717998964 4.4292747498 3.4074962632 2.4044217267 1.390355396 -1 7 6.9234960189 6.6947635505 
6.2423206557 5.5485581787 4.6603615201 3.6684304957 2.6657715834 1.6130801692 -1 7 6.9327395415 
6.7286023752 6.3167764706 5.6715238651 4.8270129593 3.86302143 2.8667050514 1.7886369249 -1 7 
6.9361671347 6.7413770341 6.3454581338 5.7198520391 4.8937647494 3.9423417342 2.9499132508 1.8622691833 -1 
7 1.5647476993 0.0057616491449 -0.54251095443 -0.772241948 -0.88082175765 -0.93602506712 -0.9653112992 -0.98173825611 
-1 7 3.5972354661 1.4367130341 0.28749147415 -0.30973772279 -0.62452482591 -0.79388832272 -0.88663895533 
-0.93975244668 -1 7 4.8379718421 2.7482093093 1.2723510449 0.34119728239 -0.21962442841 -0.5505798086 
-0.74403375387 -0.86050766963 -1 7 5.6058458815 3.8229227773 2.2615361045 1.1010007744 0.30914387934 
-0.20471762166 -0.52776177229 -0.73442368229 -1 7 6.0871478319 4.6539388401 3.1634342092 1.8897274628 
0.91735890664 0.22693775315 -0.2396651989 -0.55787243088 -1 7 6.3922426204 5.2744438216 3.9351331491 
2.6446741301 1.5557699029 0.71580617451 0.10772260572 -0.33426545293 -1 7 6.5874780557 5.72704115 
4.56614199 3.325140038 2.180706588 1.2290037176 0.49458617579 -0.073244637013 -1 7 6.7133419039 
6.051536501 5.0645768455 3.9103781356 2.7594092956 1.7356330003 0.89814305238 0.21142493979 -1 7 
6.7949112973 6.2810103136 5.4475047684 4.3948855043 3.2713570118 2.2108282407 1.2965616989 0.50444416272 -1 
7 6.8479401399 6.4413786148 5.7349122363 4.7833441141 3.7070723212 2.6375188368 1.6717385116 0.79134000465 
-1 7 6.8824525318 6.5522461509 5.9462862791 5.0862681832 4.0656791064 3.0063765379 2.0106959094 
1.0601318866 -1 7 6.9048910902 6.6280803018 6.0988690451 5.3166362817 4.3520255335 3.3144612865 
2.3055980534 1.3020014765 -1 7 6.9193940531 6.6792259552 6.206687368 5.4870721337 4.5733042512 
3.5623842278 2.5518482681 1.5102214003 -1 7 6.928388963 6.7120338586 6.2785079217 5.6049514157 
4.7319248898 3.7461340245 2.7399903141 1.6733209155 -1 7 6.9317136352 6.7243791322 6.3060832189 
5.6511253421 4.7952446683 3.8207801026 2.8176371814 1.7414999043 -1 7 1.5646765454 0.0055381947517 
-0.54292502589 -0.77281640361 -0.88147812062 -0.93667524106 -0.96588604043 -0.98217806424 -1 7 3.5970012794 
1.4359744491 0.28611704734 -0.31165196571 -0.62671973488 -0.79606943867 -0.88857247529 -0.94123547283 -1 7 
4.8374338998 2.7464925066 1.2691177154 0.33664330594 -0.22489966179 -0.55587041808 -0.7487625789 -0.8641594074 -1 
7 5.6048347638 3.8196455511 2.2552638022 1.0920299636 0.29860370618 -0.21542660373 -0.53744639643 -0.74197535157 
-1 7 6.0854930954 4.6484840695 3.1528037099 1.8742532256 0.89887358 0.20786529729 -0.25715717185 
-0.57167267497 -1 7 6.3898014724 5.2662588298 3.9188813085 2.6205740501 1.5264639981 0.68505951543 
0.079084760763 -0.35715457424 -1 7 6.5841563368 5.7157213094 4.5432504277 3.2905576928 2.1378870693 
1.1832972249 0.45132239402 -0.10829912093 -1 7 6.7091031812 6.0368730477 5.0344048353 3.8639726693 
2.7009221808 1.6721215398 0.83704213272 0.16122814715 -1 7 6.7897744561 6.2629974777 5.4098427959 
4.3359755576 3.1958411362 2.1274505406 1.2150634261 0.43657073911 -1 7 6.8419687911 6.4201873663 
5.6899593832 4.7119312857 3.6140684197 2.5332028076 1.5682097696 0.70397814222 -1 7 6.8757405384 
6.5281781561 5.8945731536 5.0029594567 3.9555980843 2.8810878296 1.8845626065 0.95236478236 -1 7 
6.8975482811 6.6015173515 6.0411579715 5.2225105158 4.2260234808 3.1691332317 2.1573553774 1.1738806694 -1 
7 6.911536623 6.6505940038 6.14389747 5.3835761427 4.4331862322 3.3988762043 2.3831046352 1.3628795416 
-1 7 6.9201468454 6.6818343613 6.2118030424 5.4940945046 4.5805012779 3.5677851933 2.5542058603 
1.5097603346 -1 7 6.9233146765 6.693536051 6.2377564623 5.537188938 4.6390438675 3.6360987134 
2.6245142873 1.5709018466 -1 7 1.56449948 0.0050195915648 -0.54381887263 -0.7739726536 -0.88271483096 
-0.93782698474 -0.96684773133 -0.98287915678 -1 7 3.5964230482 1.4342713996 0.28316621091 -0.31548713392 
-0.63083895603 -0.7999198523 -0.89179800314 -0.94359323902 -1 7 4.8361339826 2.7426054881 1.2622828626 
0.32764011223 -0.23468648084 -0.56511691731 -0.75658210945 -0.86991991142 -1 7 5.6024588161 3.8124032872 
2.2422808305 1.074616747 0.27936070747 -0.23387983308 -0.55326122744 -0.75375523102 -1 7 6.0817217007 
4.6367510614 3.1313191417 1.8448455036 0.86575486551 0.17554841005 -0.28529440278 -0.59290961813 -1 7 
6.3844063901 5.2491347703 3.886845034 2.575790961 1.4750125442 0.63390785768 0.033777143076 -0.39185008448 -1 
7 6.5770293375 5.6926721013 4.4992297538 3.2277350913 2.0642514289 1.1086862818 0.38405420949 -0.160593739 
-1 7 6.7002561191 6.0077710452 4.9777465613 3.781509395 2.6023769156 1.5703899729 0.74369106032 
0.087551392854 -1 7 6.7793182116 6.2280821739 5.3406731875 4.2334548087 3.0710743729 1.9963308782 
1.0926739726 0.33854074048 -1 7 6.8300817454 6.3799758616 5.6090588479 4.590033739 3.4632107346 
2.3719967299 1.4152855703 0.57975546433 -1 7 6.86263602 6.4833577219 5.8031833665 4.8632337161 
3.7800394621 2.6905965626 1.7011268913 0.80138372402 -1 7 6.883447571 6.5528470405 5.9407809984 
5.0670897071 4.0281168465 2.9514281122 1.9448373974 0.9968432903 -1 7 6.8966529739 6.5988411407 
6.0361551445 5.2149659043 4.2160155391 3.1571191995 2.1442662428 1.1617857284 -1 7 6.9046960829 
6.6278142171 6.0985374513 5.3153841156 4.3482616037 3.306817517 2.2939258812 1.2887440791 -1 7 
6.9076365315 6.6385995054 6.1222356157 5.3543089429 4.4005140312 3.3670250444 2.3550948847 1.3413223496 -1 
7 1.5640531115 0.0038172841304 -0.54572445181 -0.77624972451 -0.88497729578 -0.93979526517 -0.96839171715 -0.98394652208 
-1 7 3.5949797423 1.430354468 0.27691629424 -0.3229989678 -0.63834012533 -0.80647412922 -0.89695890102 
-0.94717205527 -1 7 4.8329734026 2.7338588467 1.2480693717 0.31027717208 -0.25227380275 -0.58067769248 
-0.76896981401 -0.87858773459 -1 7 5.5968689161 3.7965597511 2.2159286404 1.0417312001 0.24540453475 
-0.26444362053 -0.57796664047 -0.77126177627 -1 7 6.0731524552 4.6118572467 3.08886944 1.7906113338 
0.80852895486 0.12301194421 -0.32852505891 -0.62400439522 -1 7 6.3725597369 5.2139006456 3.8252663288 
2.4952195596 1.3880664636 0.55240368364 -0.034585879206 -0.44182478787 -1 7 6.5618736315 5.6466175292 
4.4168538627 3.1174439893 1.9425725993 0.99221097584 0.28443646462 -0.23463905823 -1 7 6.681983533 
5.9511796249 4.8743647395 3.640092003 2.4430396174 1.4147448095 0.60800045336 -0.014985600588 -1 7 