# vtk DataFile Version 5.1
vtk output
ASCII
DATASET STRUCTURED_GRID
DIMENSIONS 10 15 20
POINTS 3000 float
0 0 0 0 0 0 0 0 0 
0 0 0 0 0 0 0 0 0 
0 0 0 0 0 0 0 0 0 
0 0 0 0 0.0714286 0 0 0.0714286 0 
0 0.0714286 0 0 0.0714286 0 0 0.0714286 0 
0 0.0714286 0 0 0.0714286 0 0 0.0714286 0 
0 0.0714286 0 0 0.0714286 0 0 0.142857 0 
0 0.142857 0 0 0.142857 0 0 0.142857 0 
0 0.142857 0 0 0.142857 0 0 0.142857 0 
0 0.142857 0 0 0.142857 0 0 0.142857 0 
0 0.214286 0 0 0.214286 0 0 0.214286 0 
0 0.214286 0 0 0.214286 0 0 0.214286 0 
0 0.214286 0 0 0.214286 0 0 0.214286 0 
0 0.214286 0 0 0.285714 0 0 0.285714 0 
0 0.285714 0 0 0.285714 0 0 0.285714 0 
0 0.285714 0 0 0.285714 0 0 0.285714 0 
0 0.285714 0 0 0.285714 0 0 0.357143 0 
0 0.357143 0 0 0.357143 0 0 0.357143 0 
0 0.357143 0 0 0.357143 0 0 0.357143 0 
0 0.357143 0 0 0.357143 0 0 0.357143 0 
0 0.428571 0 0 0.428571 0 0 0.428571 0 
0 0.428571 0 0 0.428571 0 0 0.428571 0 
0 0.428571 0 0 0.428571 0 0 0.428571 0 
0 0.428571 0 0 0.5 0 0 0.5 0 
0 0.5 0 0 0.5 0 0 0.5 0 
0 0.5 0 0 0.5 0 0 0.5 0 
0 0.5 0 0 0.5 0 0 0.571429 0 
0 0.571429 0 0 0.571429 0 0 0.571429 0 
0 0.571429 0 0 0.571429 0 0 0.571429 0 
0 0.571429 0 0 0.571429 0 0 0.571429 0 
0 0.642857 0 0 0.642857 0 0 0.642857 0 
0 0.642857 0 0 0.642857 0 0 0.642857 0 
0 0.642857 0 0 0.642857 0 0 0.642857 0 
0 0.642857 0 0 0.714286 0 0 0.714286 0 
0 0.714286 0 0 0.714286 0 0 0.714286 0 
0 0.714286 0 0 0.714286 0 0 0.714286 0 
0 0.714286 0 0 0.714286 0 0 0.785714 0 
0 0.785714 0 0 0.785714 0 0 0.785714 0 
0 0.785714 0 0 0.785714 0 0 0.785714 0 
0 0.785714 0 0 0.785714 0 0 0.785714 0 
0 0.857143 0 0 0.857143 0 0 0.857143 0 
0 0.857143 0 0 0.857143 0 0 0.857143 0 
0 0.857143 0 0 0.857143 0 0 0.857143 0 
0 0.857143 0 0 0.928571 0 0 0.928571 0 
0 0.928571 0 0 0.928571 0 0 0.928571 0 
0 0.928571 0 0 0.928571 0 0 0.928571 0 
0 0.928571 0 0 0.928571 0 0 1 0 
0 1 0 0 1 0 0 1 0 
0 1 0 0 1 0 0 1 0 
0 1 0 0 1 0 0 1 0 
0 0 0.105263 0 0 0.105263 0 0 0.105263 
0 0 0.105263 0 0 0.105263 0 0 0.105263 
0 0 0.105263 0 0 0.105263 0 0 0.105263 
0 0 0.105263 0 0.0714286 0.105263 0 0.0714286 0.105263 
0 0.0714286 0.105263 0 0.0714286 0.105263 0 0.0714286 0.105263 
0 0.0714286 0.105263 0 0.0714286 0.105263 0 0.0714286 0.105263 
0 0.0714286 0.105263 0 0.0714286 0.105263 0 0.142857 0.105263 
0 0.142857 0.105263 0 0.142857 0.105263 0 0.142857 0.105263 
0 0.142857 0.105263 0 0.142857 0.105263 0 0.142857 0.105263 
0 0.142857 0.105263 0 0.142857 0.105263 0 0.142857 0.105263 
0 0.214286 0.105263 0 0.214286 0.105263 0 0.214286 0.105263 
0 0.214286 0.105263 0 0.214286 0.105263 0 0.214286 0.105263 
0 0.214286 0.105263 0 0.214286 0.105263 0 0.214286 0.105263 
0 0.214286 0.105263 0 0.285714 0.105263 0 0.285714 0.105263 
0 0.285714 0.105263 0 0.285714 0.105263 0 0.285714 0.105263 
0 0.285714 0.105263 0 0.285714 0.105263 0 0.285714 0.105263 
0 0.285714 0.105263 0 0.285714 0.105263 0 0.357143 0.105263 
0 0.357143 0.105263 0 0.357143 0.105263 0 0.357143 0.105263 
0 0.357143 0.105263 0 0.357143 0.105263 0 0.357143 0.105263 
0 0.357143 0.105263 0 0.357143 0.105263 0 0.357143 0.105263 
0 0.428571 0.105263 0 0.428571 0.105263 0 0.428571 0.105263 
0 0.428571 0.105263 0 0.428571 0.105263 0 0.428571 0.105263 
0 0.428571 0.105263 0 0.428571 0.105263 0 0.428571 0.105263 
0 0.428571 0.105263 0 0.5 0.105263 0 0.5 0.105263 
0 0.5 0.105263 0 0.5 0.105263 0 0.5 0.105263 
0 0.5 0.105263 0 0.5 0.105263 0 0.5 0.105263 
0 0.5 0.105263 0 0.5 0.105263 0 0.571429 0.105263 
0 0.571429 0.105263 0 0.571429 0.105263 0 0.571429 0.105263 
0 0.571429 0.105263 0 0.571429 0.105263 0 0.571429 0.105263 
0 0.571429 0.105263 0 0.571429 0.105263 0 0.571429 0.105263 
0 0.642857 0.105263 0 0.642857 0.105263 0 0.642857 0.105263 
0 0.642857 0.105263 0 0.642857 0.105263 0 0.642857 0.105263 
0 0.642857 0.105263 0 0.642857 0.105263 0 0.642857 0.105263 
0 0.642857 0.105263 0 0.714286 0.105263 0 0.714286 0.105263 
0 0.714286 0.105263 0 0.714286 0.105263 0 0.714286 0.105263 
0 0.714286 0.105263 0 0.714286 0.105263 0 0.714286 0.105263 
0 0.714286 0.105263 0 0.714286 0.105263 0 0.785714 0.105263 
0 0.785714 0.105263 0 0.785714 0.105263 0 0.785714 0.105263 
0 0.785714 0.105263 0 0.785714 0.105263 0 0.785714 0.105263 
0 0.785714 0.105263 0 0.785714 0.105263 0 0.785714 0.105263 
0 0.857143 0.105263 0 0.857143 0.105263 0 0.857143 0.105263 
0 0.857143 0.105263 0 0.857143 0.105263 0 0.857143 0.105263 
0 0.857143 0.105263 0 0.857143 0.105263 0 0.857143 0.105263 
0 0.857143 0.105263 0 0.928571 0.105263 0 0.928571 0.105263 
0 0.928571 0.105263 0 0.928571 0.105263 0 0.928571 0.105263 
0 0.928571 0.105263 0 0.928571 0.105263 0 0.928571 0.105263 
0 0.928571 0.105263 0 0.928571 0.105263 0 1 0.105263 
0 1 0.105263 0 1 0.105263 0 1 0.105263 
0 1 0.105263 0 1 0.105263 0 1 0.105263 
0 1 0.105263 0 1 0.105263 0 1 0.105263 
0 0 0.210526 0 0 0.210526 0 0 0.210526 
0 0 0.210526 0 0 0.210526 0 0 0.210526 
0 0 0.210526 0 0 0.210526 0 0 0.210526 
0 0 0.210526 0 0.0714286 0.210526 0 0.0714286 0.210526 
0 0.0714286 0.210526 0 0.0714286 0.210526 0 0.0714286 0.210526 
0 0.0714286 0.210526 0 0.0714286 0.210526 0 0.0714286 0.210526 
0 0.0714286 0.210526 0 0.0714286 0.210526 0 0.142857 0.210526 
0 0.142857 0.210526 0 0.142857 0.210526 0 0.142857 0.210526 
0 0.142857 0.210526 0 0.142857 0.210526 0 0.142857 0.210526 
0 0.142857 0.210526 0 0.142857 0.210526 0 0.142857 0.210526 
0 0.214286 0.210526 0 0.214286 0.210526 0 0.214286 0.210526 
0 0.214286 0.210526 0 0.214286 0.210526 0 0.214286 0.210526 
0 0.214286 0.210526 0 0.214286 0.210526 0 0.214286 0.210526 
0 0.214286 0.210526 0 0.285714 0.210526 0 0.285714 0.210526 
0 0.285714 0.210526 0 0.285714 0.210526 0 0.285714 0.210526 
0 0.285714 0.210526 0 0.285714 0.210526 0 0.285714 0.210526 
0 0.285714 0.210526 0 0.285714 0.210526 0 0.357143 0.210526 
0 0.357143 0.210526 0 0.357143 0.210526 0 0.357143 0.210526 
0 0.357143 0.210526 0 0.357143 0.210526 0 0.357143 0.210526 
0 0.357143 0.210526 0 0.357143 0.210526 0 0.357143 0.210526 
0 0.428571 0.210526 0 0.428571 0.210526 0 0.428571 0.210526 
0 0.428571 0.210526 0 0.428571 0.210526 0 0.428571 0.210526 
0 0.428571 0.210526 0 0.428571 0.210526 0 0.428571 0.210526 
0 0.428571 0.210526 0 0.5 0.210526 0 0.5 0.210526 
0 0.5 0.210526 0 0.5 0.210526 0 0.5 0.210526 
0 0.5 0.210526 0 0.5 0.210526 0 0.5 0.210526 
0 0.5 0.210526 0 0.5 0.210526 0 0.571429 0.210526 
0 0.571429 0.210526 0 0.571429 0.210526 0 0.571429 0.210526 
0 0.571429 0.210526 0 0.571429 0.210526 0 0.571429 0.210526 
0 0.571429 0.210526 0 0.571429 0.210526 0 0.571429 0.210526 
0 0.642857 0.210526 0 0.642857 0.210526 0 0.642857 0.210526 
0 0.642857 0.210526 0 0.642857 0.210526 0 0.642857 0.210526 
0 0.642857 0.210526 0 0.642857 0.210526 0 0.642857 0.210526 
0 0.642857 0.210526 0 0.714286 0.210526 0 0.714286 0.210526 
0 0.714286 0.210526 0 0.714286 0.210526 0 0.714286 0.210526 
0 0.714286 0.210526 0 0.714286 0.210526 0 0.714286 0.210526 
0 0.714286 0.210526 0 0.714286 0.210526 0 0.785714 0.210526 
0 0.785714 0.210526 0 0.785714 0.210526 0 0.785714 0.210526 
0 0.785714 0.210526 0 0.785714 0.210526 0 0.785714 0.210526 
0 0.785714 0.210526 0 0.785714 0.210526 0 0.785714 0.210526 
0 0.857143 0.210526 0 0.857143 0.210526 0 0.857143 0.210526 
0 0.857143 0.210526 0 0.857143 0.210526 0 0.857143 0.210526 
0 0.857143 0.210526 0 0.857143 0.210526 0 0.857143 0.210526 
0 0.857143 0.210526 0 0.928571 0.210526 0 0.928571 0.210526 
0 0.928571 0.210526 0 0.928571 0.210526 0 0.928571 0.210526 
0 0.928571 0.210526 0 0.928571 0.210526 0 0.928571 0.210526 
0 0.928571 0.210526 0 0.928571 0.210526 0 1 0.210526 
0 1 0.210526 0 1 0.210526 0 1 0.210526 
0 1 0.210526 0 1 0.210526 0 1 0.210526 
0 1 0.210526 0 1 0.210526 0 1 0.210526 
0 0 0.315789 0 0 0.315789 0 0 0.315789 
0 0 0.315789 0 0 0.315789 0 0 0.315789 
0 0 0.315789 0 0 0.315789 0 0 0.315789 
0 0 0.315789 0 0.0714286 0.315789 0 0.0714286 0.315789 
0 0.0714286 0.315789 0 0.0714286 0.315789 0 0.0714286 0.315789 
0 0.0714286 0.315789 0 0.0714286 0.315789 0 0.0714286 0.315789 
0 0.0714286 0.315789 0 0.0714286 0.315789 0 0.142857 0.315789 
0 0.142857 0.315789 0 0.142857 0.315789 0 0.142857 0.315789 
0 0.142857 0.315789 0 0.142857 0.315789 0 0.142857 0.315789 
0 0.142857 0.315789 0 0.142857 0.315789 0 0.142857 0.315789 
0 0.214286 0.315789 0 0.214286 0.315789 0 0.214286 0.315789 
0 0.214286 0.315789 0 0.214286 0.315789 0 0.214286 0.315789 
0 0.214286 0.315789 0 0.214286 0.315789 0 0.214286 0.315789 
0 0.214286 0.315789 0 0.285714 0.315789 0 0.285714 0.315789 
0 0.285714 0.315789 0 0.285714 0.315789 0 0.285714 0.315789 
0 0.285714 0.315789 0 0.285714 0.315789 0 0.285714 0.315789 
0 0.285714 0.315789 0 0.285714 0.315789 0 0.357143 0.315789 
0 0.357143 0.315789 0 0.357143 0.315789 0 0.357143 0.315789 
0 0.357143 0.315789 0 0.357143 0.315789 0 0.357143 0.315789 
0 0.357143 0.315789 0 0.357143 0.315789 0 0.357143 0.315789 
0 0.428571 0.315789 0 0.428571 0.315789 0 0.428571 0.315789 
0 0.428571 0.315789 0 0.428571 0.315789 0 0.428571 0.315789 
0 0.428571 0.315789 0 0.428571 0.315789 0 0.428571 0.315789 
0 0.428571 0.315789 0 0.5 0.315789 0 0.5 0.315789 
0 0.5 0.315789 0 0.5 0.315789 0 0.5 0.315789 
0 0.5 0.315789 0 0.5 0.315789 0 0.5 0.315789 
0 0.5 0.315789 0 0.5 0.315789 0 0.571429 0.315789 
0 0.571429 0.315789 0 0.571429 0.315789 0 0.571429 0.315789 
0 0.571429 0.315789 0 0.571429 0.315789 0 0.571429 0.315789 
0 0.571429 0.315789 0 0.571429 0.315789 0 0.571429 0.315789 
0 0.642857 0.315789 0 0.642857 0.315789 0 0.642857 0.315789 
0 0.642857 0.315789 0 0.642857 0.315789 0 0.642857 0.315789 
0 0.642857 0.315789 0 0.642857 0.315789 0 0.642857 0.315789 
0 0.642857 0.315789 0 0.714286 0.315789 0 0.714286 0.315789 
0 0.714286 0.315789 0 0.714286 0.315789 0 0.714286 0.315789 
0 0.714286 0.315789 0 0.714286 0.315789 0 0.714286 0.315789 
0 0.714286 0.315789 0 0.714286 0.315789 0 0.785714 0.315789 
0 0.785714 0.315789 0 0.785714 0.315789 0 0.785714 0.315789 
0 0.785714 0.315789 0 0.785714 0.315789 0 0.785714 0.315789 
0 0.785714 0.315789 0 0.785714 0.315789 0 0.785714 0.315789 
[...]
POINT_DATA 3000
FIELD FieldData 6
unknown 1 3000 double
7 7 7 7 7 7 7 7 7 
7 7 7 7 7 7 7 7 7 
7 7 7 7 7 7 7 7 7 
7 7 7 7 7 7 7 7 7 
7 7 7 7 7 7 7 7 7 
7 7 7 7 7 7 7 7 7 
7 7 7 7 7 7 7 7 7 
7 7 7 7 7 7 7 7 7 
7 7 7 7 7 7 7 7 7 
7 7 7 7 7 7 7 7 7 
7 7 7 7 7 7 7 7 7 
7 7 7 7 7 7 7 7 7 
7 7 7 7 7 7 7 7 7 
7 7 7 7 7 7 7 7 7 
7 7 7 7 7 7 7 7 7 
7 7 7 7 7 7 7 7 7 
7 7 7 7 7 7 7 1.7151511843 0.23558680868 
-0.27363843939 -0.48128284484 -0.57525752402 -0.62003784965 -0.64212597467 -0.66265552871 -1 7 3.7636429069 
1.7385819296 0.67785505345 0.14048602101 -0.13062287921 -0.2672304224 -0.33657592905 -0.39316916684 -1 7 
4.9520864872 2.9875010633 1.6200722335 0.78233722497 0.30217233954 0.038228964358 -0.10383233019 -0.20992329972 -1 
7 5.65124177 3.9377987301 2.4670378666 1.4153667723 0.73936435024 0.33436742556 0.10195646556 -0.065459709027 
-1 7 6.0663024789 4.6237445608 3.1737618032 2.0000810184 1.1681712519 0.62938652682 0.30046292334 
0.064129309797 -1 7 6.31399509 5.1012093133 3.730732251 2.507852831 1.5679775528 0.91662917071 
0.49585579913 0.18869656947 -1 7 6.4621498125 5.4245836861 4.1504150389 2.9260388253 1.9217452808 
1.1848853105 0.68452578585 0.31008777356 -1 7 6.5507862759 5.6388646248 4.455406556 3.2554052804 
2.2201702949 1.4243464744 0.86035968213 0.42624301977 -1 7 6.6037498964 5.7783086334 4.6705297102 
3.5052326772 2.4615569962 1.6291360504 1.0178693899 0.53389544187 -1 7 6.6353286068 5.8676666055 
4.8185062861 3.6887632005 2.6498030548 1.7976068977 1.153620941 0.63015126297 -1 7 6.6541040784 
5.9241702701 4.918138101 3.8199362916 2.7920077324 1.9314821659 1.2664994615 0.71320962995 -1 7 
6.6652297404 5.9594758979 4.9839712791 3.9114501338 2.8964351593 2.0345865256 1.3572866015 0.78246397129 -1 
7 6.6717840036 5.9812471875 5.0266322928 3.9737349539 2.9709192519 2.1114336872 1.4277461189 0.83805983311 
-1 7 6.6755171451 5.9941207483 5.0529275281 4.0137502571 3.0207121921 2.1647616081 1.4783494507 
0.87914620838 -1 7 6.6768293756 5.9987409825 5.062585403 4.028788424 3.0398373182 2.1856638637 
1.4985523376 0.89579959177 -1 7 1.5614921394 -0.0026006180246 -0.55322054924 -0.78130741699 -0.88553635659 
-0.93547766528 -0.95989359504 -0.97297854125 -1 7 3.5800643175 1.3987446349 0.23943728165 -0.35389759051 
-0.65528614345 -0.80779870879 -0.8846658201 -0.92618068187 -1 7 4.7944228759 2.6506991452 1.1439468951 
0.21447070942 -0.32081276861 -0.61596234815 -0.77395258208 -0.86208213513 -1 7 5.5278206125 3.6411755812 
2.0110352482 0.83986547432 0.084522204634 -0.36901684703 -0.62815290731 -0.77920610776 -1 7 5.9715239215 
4.3733016905 2.7595870698 1.4490171038 0.5178243947 -0.086247100856 -0.45368442054 -0.67844989208 -1 7 
6.2399470415 4.8908410324 3.3613696309 1.9932679226 0.93985518925 0.20891943338 -0.26175987327 -0.56390135496 -1 
7 6.4020959886 5.2450438446 3.820499564 2.4489518266 1.3222921828 0.4948374888 -0.065410558848 -0.44190514332 
-1 7 6.4998059621 5.4814726268 4.1569027942 2.8115258578 1.6494066531 0.75529913543 0.12337305374 
-0.31951617322 -1 7 6.5585009403 5.6361326462 4.3955130619 3.088362993 1.9162639834 0.98071330803 
0.29548093717 -0.20310252915 -1 7 6.5936341348 5.7356165786 4.5602918381 3.2926412347 2.1255154435 
1.1675087444 0.4453574792 -0.097461058673 -1 7 6.6145840221 5.7986983681 4.6715495591 3.4390929718 
2.284163888 1.31663682 0.57077280057 -0.0055029463305 -1 7 6.627025362 5.8381957453 4.7452155633 
3.5414881449 2.4009553645 1.4318377658 0.6720461878 0.071581413024 -1 7 6.6343667288 5.8625892747 
4.7930237615 3.6112862454 2.4843996758 1.51787347 0.75084386166 0.1336665635 -1 7 6.6385531087 
5.8770291282 4.8225223025 3.656175328 2.5402446058 1.5776535797 0.80752334963 0.17963796194 -1 7 
6.6400255398 5.8822143377 4.8333622643 3.6730535588 2.5617053705 1.6010982626 0.83016749202 0.19828691383 -1 
7 1.5564142801 -0.012046248585 -0.56553887839 -0.79534252892 -0.90054557474 -0.95101792536 -0.97567772524 -0.98808443037 
-1 7 3.5710324187 1.379735796 0.21281589012 -0.38547100727 -0.68981107007 -0.84398209516 -0.92163950135 
-0.96146395445 -1 7 4.7844795794 2.6273538289 1.108709501 0.17059089542 -0.37027970041 -0.66876454976 
-0.82845778984 -0.91413255643 -1 7 5.5185802988 3.6173665268 1.9724963297 0.78944758586 0.025764262691 
-0.43309275693 -0.69514533086 -0.84342674741 -1 7 5.9635189252 4.3510309586 2.7212378962 1.3964632005 
0.45451115637 -0.15687023348 -0.52859204669 -0.75070360218 -1 7 6.2331568428 4.870773976 3.3249745091 
1.9412977655 0.87527675709 0.13526651123 -0.34105697598 -0.6409785312 -1 7 6.3962934872 5.2271177416 
3.7866331122 2.3989096509 1.2584011185 0.42046387279 -0.14665021131 -0.52152995039 -1 7 6.4947313528 
5.4653222244 4.1254720513 2.7638337696 1.5871466645 0.6815334811 0.041732167693 -0.40019305201 -1 7 
6.5539311134 5.6213284565 4.3661295778 3.0429189045 1.8559176653 0.90818313384 0.21430111731 -0.28392784404 -1 
7 6.5894000695 5.7217741836 4.5324929528 3.2491021776 2.0669883484 1.0963915608 0.36503490769 -0.17794930877 
-1 7 6.610566535 5.7855142493 4.6449091344 3.3970491521 2.2271846711 1.2468543641 0.49141080488 
-0.085444597607 -1 7 6.6231442428 5.8254474029 4.7193862138 3.5005546996 2.345200355 1.3631903712 
0.59358296865 -0.0077727600158 -1 7 6.630569588 5.85012096 4.7677412503 3.5711397347 2.4295581208 
1.4501211142 0.67313633651 0.054845673663 -1 7 6.6348052658 5.8647309589 4.7975853184 3.6165464928 
2.4860288081 1.5105403279 0.73037997786 0.10123445458 -1 7 6.6362952809 5.8699780175 4.8085536087 
3.6336212293 2.5077322696 1.5342382356 0.75325260125 0.120056187 -1 7 1.5562247479 -0.012460094847 
-0.5661385887 -0.79607321578 -0.90135998353 -0.95188207717 -0.9765662159 -0.98892518562 -1 7 3.5706029022 
1.3787206869 0.21127166339 -0.38740799342 -0.6920073685 -0.8463357958 -0.92407216613 -0.96376447748 -1 7 
4.7839081102 2.6258871838 1.1063403517 0.16749387352 -0.37388839077 -0.67269907823 -0.83256487168 -0.91802415764 -1 
7 5.5179649363 3.6156669912 1.9695865787 0.78547684058 0.020995484434 -0.43839836686 -0.70075265553 -0.84876260765 
-1 7 5.962921358 4.349274384 2.7180675964 1.3919550531 0.44892946879 -0.16321446076 -0.53539004048 
-0.75721140043 -1 7 6.2326040751 4.8690644958 3.3217454167 1.9365313601 0.86920237579 0.12821483475 
-0.3487211547 -0.64836740428 -1 7 6.3957901656 5.22549903 3.7834591002 2.3940715004 1.2520731617 
0.41297138546 -0.15490644276 -0.52954876559 -1 7 6.4942710704 5.4637994582 4.1223985662 2.7590242357 
1.5807151836 0.67378400142 0.033084265024 -0.4086526227 -1 7 6.5535037815 5.6198875591 4.3631593795 
3.0381754977 1.8494593285 0.90028545445 0.20539043742 -0.2927009779 -1 7 6.5889957978 5.7203946746 
4.5296076449 3.2444245509 2.060529648 1.0883983934 0.35593356814 -0.18695965522 -1 7 6.6101772241 
5.7841762954 4.64208362 3.3924190105 2.2207236022 1.2387829283 0.48215240696 -0.094651679226 -1 7 
6.6227639252 5.8241348646 4.7165968105 3.4959490507 2.3387229078 1.3550398966 0.58417954664 -0.017157315535 -1 
7 6.6301942056 5.8488221412 4.7649693965 3.566538596 2.4230495503 1.4418864349 0.66359296566 0.045295251739 
-1 7 6.6344322605 5.8634382947 4.7948189653 3.6119377098 2.4794828513 1.5022255436 0.72071206369 
0.091540039828 -1 7 6.6359229886 5.8686870364 4.8057879052 3.6290069358 2.5011678957 1.5258868388 
0.74352925029 0.11029834938 -1 7 1.5562166711 -0.012480547594 -0.56617180663 -0.79611720516 -0.90141184878 
-0.95193893016 -0.97662536032 -0.98898044919 -1 7 3.5705815647 1.3786639028 0.21117634156 -0.38753693865 
-0.69216142917 -0.84650597597 -0.92424984264 -0.96393041707 -1 7 4.7838745609 2.625791844 1.1061718442 
0.16725722568 -0.37417840996 -0.67302446672 -0.83290715864 -0.91834384899 -1 7 5.5179223656 3.6155380762 
1.9693461599 0.78512502581 0.020551642162 -0.43890548639 -0.70129087122 -0.84926552628 -1 7 5.9628725434 
4.3491178764 2.717760525 1.3914872591 0.44832188513 -0.16392170224 -0.53614751524 -0.75791962134 -1 7 
6.2325504264 4.8688839408 3.321374886 1.935945852 0.8684210337 0.1272891497 -0.34972127393 -0.64930310299 -1 
7 6.3957318389 5.2252949242 3.7830242131 2.3933623476 1.2511039703 0.41180466278 -0.1561773156 -0.53073883588 
-1 7 6.4942074961 5.4635702338 4.1218952902 2.7581820029 1.5795404655 0.6723496832 0.031509776735 
-0.41012912659 -1 7 6.5534341984 5.6196310049 4.3625827842 3.0371901048 1.8480611763 0.89855669795 
0.20347837453 -0.29449808356 -1 7 6.5889196243 5.7201091118 4.5289540884 3.2432884849 2.0588941074 
1.0863530629 0.35365429721 -0.18910864566 -1 7 6.6100942397 5.7838612552 4.6413521963 3.3911297155 
2.2188441199 1.2364081071 0.47948596022 -0.097175672919 -1 7 6.6226743102 5.8237913129 4.715789967 
3.4945101806 2.3366024945 1.352335188 0.58112004754 -0.020066477193 -1 7 6.6300985279 5.8484525327 
4.7640932834 3.5649610435 2.4207029894 1.4388678047 0.66015422929 0.042010089602 -1 7 6.6343316317 
5.8630473601 4.7938858176 3.6102449352 2.4769463363 1.498940091 0.71694716084 0.087928266389 -1 7 
6.6358202563 5.8682870268 4.8048304045 3.6272647291 2.4985494339 1.5224855959 0.73962197856 0.10654332 -1 
7 1.5562155202 -0.012484378131 -0.56617955371 -0.79612909665 -0.90142696129 -0.9519556161 -0.97664182242 -0.98899441715 
-1 7 3.5705778923 1.3786514868 0.21115097061 -0.38757614044 -0.69221145915 -0.846561351 -0.92430452831 
-0.9639767957 -1 7 4.7838664561 2.6257637353 1.1061132779 0.16716545514 -0.37429668533 -0.67315622144 
-0.83303769826 -0.91845456649 -1 7 5.5179073815 3.6154849157 1.9692332293 0.78494532614 0.020317282 
-0.43916882853 -0.70155321884 -0.84948848342 -1 7 5.9628478193 4.3490285307 2.7175673797 1.391175216 
0.44790970865 -0.16438962968 -0.5366172177 -0.75832051604 -1 7 6.2325130022 4.8687466496 3.3210734088 
1.9354515893 0.86775950598 0.12652952141 -0.35049090622 -0.64996416757 -1 7 6.3956790729 5.2250988648 
3.7825875067 2.3926361946 1.2501190367 0.4106598395 -0.15734951594 -0.53175366964 -1 7 6.494137449 
5.4633070414 4.1213013103 2.7571808762 1.5781644757 0.67073019399 0.029832688974 -0.41159410849 -1 7 
6.5533458774 5.6192958391 4.3618171679 3.0358829988 1.8462413094 0.89638781518 0.20120603855 -0.29650199429 -1 
7 6.5888130442 5.7197010562 4.5280115773 3.2416598581 2.0565984167 1.0835834693 0.35071869952 -0.19172265945 
-1 7 6.6099703212 5.7833830747 4.640236555 3.3891803391 2.2160642352 1.2330149983 0.47584869604 
-0.10044553531 -1 7 6.6225346809 5.8232487904 4.7145128163 3.4922559657 2.3333534092 1.3483259733 
0.57677630865 -0.024007202307 -1 7 6.629945356 5.8478538997 4.7626730846 3.5624320736 2.4170231931 
1.4342825123 0.65513809101 0.03742128534 -1 7 6.6341678796 5.862404466 4.7923513114 3.6074931873 
2.4729119371 1.4938731937 0.71136056618 0.082782857053 -1 7 6.6356521009 5.8676256214 4.8032477775 
3.6244185042 2.4943634985 1.5172113172 0.73378795941 0.10115504775 -1 7 1.5562132977 -0.012492002112 
-0.56619500044 -0.79615234284 -0.90145547741 -0.95198562758 -0.97666972784 -0.98901661701 -1 7 3.5705705102 
1.3786260986 0.21109939222 -0.3876539674 -0.692307167 -0.8466623095 -0.924398598 -0.96405176011 -1 7 
4.7838490491 2.6257034422 1.1059898332 0.1669777626 -0.37452917425 -0.67340311934 -0.83326916339 -0.91863995759 -1 
7 5.5178735049 3.6153664468 1.9689880663 0.78456855795 0.019845777503 -0.43967441185 -0.70203142974 -0.84987435121 
-1 7 5.9627902148 4.3488248803 2.7171406711 1.3905111112 0.44706834268 -0.16530242233 -0.53749004033 
-0.75903127116 -1 7 6.2324246952 4.8684308878 3.3204029676 1.9343937651 0.86640110798 0.1250365037 
-0.35193612152 -0.6511533005 -1 7 6.395554461 5.2246482332 3.7816177858 2.3910844761 1.2480981793 
0.4084080474 -0.15955778584 -0.53359095958 -1 7 6.4939730802 5.4627061858 4.1199912955 2.7550552055 
1.5753568025 0.66755785006 0.026679876689 -0.41424748975 -1 7 6.5531407627 5.6185384594 4.3601452832 
3.0331335155 1.8425593963 0.89217025838 0.19695844611 -0.30011794942 -1 7 6.588568515 5.7187898431 
4.5259768791 3.2382712815 2.0520009117 1.0782471882 0.34527468691 -0.1964092983 -1 7 6.6096895605 
5.7823282916 4.637856639 3.3851706596 2.2105573535 1.2265433081 0.46916494689 -0.10626133402 -1 7 
6.622222119 5.8220661728 4.711819768 3.4876712534 2.3269865765 1.3407576216 0.56887048307 -0.030955447715 -1 
7 6.6296061954 5.8465629401 4.7597100299 3.5573419115 2.4098852424 1.4257109542 0.6460926384 0.029399735595 
-1 7 6.6338084614 5.8610300837 4.7891773324 3.6020017749 2.4651515273 1.48447821 0.70136463604 
0.073854069406 -1 7 6.6352843583 5.8662167646 4.7999859852 3.618758661 2.4863395767 1.5074648035 
0.72338300919 0.091833255828 -1 7 1.5562072794 -0.012511780373 -0.56623315884 -0.79620695062 -0.90151920812 
-0.95204951804 -0.97672642442 -0.98905991135 -1 7 3.5705505978 1.3785604699 0.21097238359 -0.38783627016 
-0.6925205229 -0.8468767573 -0.92458935375 -0.96419771668 -1 7 4.7838026486 2.6255492431 1.1056887583 
0.16654185661 -0.37504351331 -0.67392403293 -0.83373576882 -0.91899908317 -1 7 5.5177847165 3.6150680755 
1.9683983407 0.78370436326 0.018814274602 -0.44073046054 -0.70298688387 -0.85061596772 -1 7 5.9626422209 
4.3483212608 2.7161311902 1.3890107487 0.44525287781 -0.16718535519 -0.53921434897 -0.76038351385 -1 7 
6.2322026327 4.8676653455 3.3188455639 1.9320437024 0.86351494278 0.12200005921 -0.35475438542 -0.65338901444 -1 
7 6.3952478352 5.2235776523 3.7794073171 2.3876972249 1.2438740955 0.40389743281 -0.16380392915 -0.53700067198 
-1 7 6.4935770893 5.4613069148 4.117060673 2.7504962796 1.5695846715 0.66130149447 0.020705322057 
-0.4191050639 -1 7 6.5526563808 5.6168079283 4.3564722083 3.0273372688 1.8351126326 0.88398047779 
0.18902639516 -0.30664681283 -1 7 6.5880015789 5.7167443366 4.5215820932 3.2312435111 2.0428470116 
1.0680395456 0.33525322899 -0.2047565747 -1 7 6.6090493034 5.7799982445 4.6327958461 3.3769799085 
2.1997529498 1.2143387835 0.45702910739 -0.11648411612 -1 7 6.6215196204 5.8194906888 4.7061726855 
3.4784336838 2.3146621602 1.3266717791 0.554698568 -0.043018203369 -1 7 6.6288532562 5.8437856083 
4.7535715617 3.5472084708 2.396231667 1.4099442966 0.63006367592 0.015629154863 -1 7 6.6330181252 
5.8581012544 4.7826641381 3.5911730372 2.4504474931 1.4673589828 0.68381523122 0.05866473026 -1 7 
6.6344788654 5.8632261407 4.7933186694 3.6076413334 2.4711954445 1.4897736566 0.70518505201 0.076034312452 -1 
7 1.5561908606 -0.012563086171 -0.56632681935 -0.79633375364 -0.90165942299 -0.95218299156 -0.97683920544 -0.98914244579 
-1 7 3.5704965645 1.3783910203 0.21066191322 -0.38825806226 -0.69298842424 -0.84732347314 -0.92496782445 
-0.96447530964 -1 7 4.7836786465 2.6251564308 1.1049614624 0.16554385042 -0.37616096359 -0.6750000617 
-0.83465455332 -0.91967742183 -1 7 5.5175522714 3.6143218573 1.9669969913 0.78175473452 0.016602776249 
-0.44288587752 -0.70484788064 -0.85200293858 -1 7 5.962263689 4.3470880317 2.7137778103 1.3856841537 
0.44142161849 -0.17097339895 -0.54252882286 -0.76288197431 -1 7 6.2316482046 4.8658319116 3.3152880879 
1.9269298838 0.85752835274 0.11598792151 -0.36009254556 -0.65746391268 -1 7 6.3945002884 5.2210698874 
3.7744610916 2.3804664521 1.2352674725 0.395113971 -0.1717227223 -0.54312587828 -1 7 6.492633285 
5.4580983998 4.1106333551 2.7409465753 1.55803145 0.64932123773 0.0097377163729 -0.42770247845 -1 7 
6.5515258133 5.6129181933 4.3485681757 3.0154135127 1.8204623382 0.86855321235 0.17469073089 -0.31803248656 -1 
7 6.5867030594 5.7122294863 4.5122894232 3.2170287565 2.0251292675 1.0491102804 0.31741178995 -0.21910538073 
-1 7 6.6076070155 5.7749379933 4.6222628477 3.3606667427 2.1791531361 1.1920355705 0.43572797558 
-0.1338178306 -1 7 6.6199595636 5.8139756192 4.6945819839 3.4602872619 2.2914815148 1.3012724844 
0.53014724415 -0.063212902739 -1 7 6.627200921 5.8379082741 4.7411206982 3.5275369744 2.370853509 
1.3818471548 0.60261665938 -0.007163091621 -1 7 6.6312993184 5.8519593618 4.7695739842 3.5703460941 
2.4233713081 1.4371361111 0.65404358066 0.0337540181 -1 7 6.6327335238 5.8569778692 4.7799690606 
3.5863406898 2.4434159129 1.4586613248 0.67443134516 0.050221437341 -1 7 1.5561460031 -0.012695298308 
-0.56655363259 -0.79662259049 -0.9019605718 -0.95245407406 -0.97705652746 -0.98929437683 -1 7 3.5703498803 
1.3779567376 0.20991359462 -0.38921490193 -0.69398974425 -0.84822784158 -0.92569502694 -0.96498499028 -1 7 
4.7833479839 2.6241652014 1.1032320328 0.16330658093 -0.37852735945 -0.67715819064 -0.83640520289 -0.92091352261 -1 
7 5.5169468586 3.612477659 1.9637256662 0.77745538202 0.011987880801 -0.44715209698 -0.70835173191 -0.8545030819 
-1 7 5.9613030913 4.3441107828 2.7083987263 1.3784867883 0.4335636377 -0.17835410366 -0.54868037897 
-0.76732690307 -1 7 6.2302779148 4.8615113754 3.3073346954 1.9160877993 0.84547638323 0.10447294823 
-0.36984458169 -0.66460829076 -1 7 6.3926992456 5.2152986657 3.7636435378 2.3654464503 1.2182676148 
0.37858673277 -0.18595223191 -0.55370089715 -1 7 6.490412848 5.4508780377 4.0968699431 2.721499893 
1.5356348186 0.62717311511 -0.0096455918679 -0.44231554203 -1 7 6.5489226716 5.6043429309 4.3319715552 
2.9915833903 1.7925655496 0.8405150178 0.14976294172 -0.33708884582 -1 7 6.583769526 5.7024574695 
4.4931214801 3.1891058324 1.9919496261 1.0152567494 0.28686460467 -0.2427675601 -1 7 6.6044016273 
5.764159928 4.6008766179 3.3291147343 2.1411581263 1.1527359619 0.39978041503 -0.16200571003 -1 7 
6.6165398015 5.802388217 4.6713668271 3.4256633796 2.2493003053 1.2571122222 0.48925675916 -0.095633706087 -1 
7 6.623619113 5.8256977947 4.7164650035 3.4904331388 2.3252067235 1.3335616994 0.557429926 -0.043338800126 
-1 7 6.6276043362 5.8393069738 4.7438766292 3.5314109502 2.3751100481 1.3856721444 0.60547906006 
-0.0054248616266 -1 7 6.6289941078 5.844150545 4.7538550459 3.5466647811 2.3940850438 1.4058824929 
0.62445477971 0.0097760030897 -1 7 1.5560231592 -0.013033422254 -0.56709427631 -0.79726582399 -0.902589375 
-0.95298678319 -0.97746005776 -0.98956290796 -1 7 3.5699512935 1.3768532729 0.20813962534 -0.39133575455 
-0.69607197837 -0.84999865682 -0.9270410269 -0.96588326702 -1 7 4.7824683161 2.621691798 1.0991955763 
0.15841418416 -0.38339037629 -0.68134004557 -0.83961558396 -0.9230740172 -1 7 5.5153793266 3.6079837191 
1.9562478497 0.76822509252 0.0026579444297 -0.455298921 -0.71469341879 -0.85882143383 -1 7 5.9588873241 
4.3370423853 2.6963865057 1.3633556742 0.41797530049 -0.19220854841 -0.55964194181 -0.77489597316 -1 7 
6.226929914 4.8515202449 3.2899950705 1.8937893715 0.8220444957 0.083253761215 -0.38692913558 -0.67658517771 -1 
7 6.388417098 5.2022858499 3.7406061858 2.3352212591 1.1858788246 0.34870006731 -0.21044732161 -0.57114182957 
-1 7 6.4852630087 5.4349741925 4.0681988218 2.6831733841 1.4937941584 0.58785720329 -0.042435609196 
-0.46602426664 -1 7 6.5430164055 5.5858477874 4.2980886276 2.9455168353 1.7414050191 0.79161549037 
0.1082978652 -0.36751589019 -1 7 6.5772384095 5.6817655276 4.4546849956 3.1360626824 1.9321254531 
0.9571784129 0.23685222948 -0.27997762444 -1 7 6.5973777354 5.7416931939 4.5586545117 3.270095044 
2.0736866722 1.0863155584 0.3417806231 -0.20570851229 -1 7 6.6091428165 5.7785473151 4.626133304 
3.3617512444 2.1753855498 1.183461346 0.42414381545 -0.14525508002 -1 7 6.6159507098 5.8008365464 
4.6689386208 3.4226946326 2.2461138999 1.253942621 0.48629321869 -0.098083790595 -1 7 6.6197525503 
5.8137443282 4.6947400415 3.4609229147 2.2922089102 1.3015621975 0.52970977439 -0.064184066467 -1 7 
6.6210716159 5.8183149177 4.7040844511 3.4750806238 2.3096466361 1.3199375865 0.54677076494 -0.050658490478 -1 
7 1.5556854494 -0.013890706361 -0.56835918479 -0.79866054903 -0.90385931177 -0.9539937727 -0.97817746964 -0.99001548962 
-1 7 3.5688662081 1.374077548 0.20401613929 -0.39590926211 -0.70025759652 -0.85333247012 -0.92942548105 
-0.9673924475 -1 7 4.7801338821 2.6156018156 1.0899817063 0.14802665845 -0.39303516243 -0.68912094312 
-0.8452441903 -0.92667056375 -1 7 5.51134813 3.5972157237 1.9395778842 0.74902973289 -0.015510543261 
-0.47021301855 -0.72565210556 -0.8659172984 -1 7 5.9528746951 4.3205909198 2.6702931409 1.3326102931 
0.38824564826 -0.21709921023 -0.57826473228 -0.78714296121 -1 7 6.2188555904 4.8289227214 3.2532988988 