# vtk DataFile Version 5.1
vtk output
ASCII
DATASET STRUCTURED_GRID
DIMENSIONS 10 15 20
POINTS 3000 float
0 0 0 0 0 0 0 0 0 
0 0 0 0 0 0 0 0 0 
0 0 0 0 0 0 0 0 0 
0 0 0 0 0.0714286 0 0 0.0714286 0 
0 0.0714286 0 0 0.0714286 0 0 0.0714286 0 
0 0.0714286 0 0 0.0714286 0 0 0.0714286 0 
0 0.0714286 0 0 0.0714286 0 0 0.142857 0 
0 0.142857 0 0 0.142857 0 0 0.142857 0 
0 0.142857 0 0 0.142857 0 0 0.142857 0 
0 0.142857 0 0 0.142857 0 0 0.142857 0 
0 0.214286 0 0 0.214286 0 0 0.214286 0 
0 0.214286 0 0 0.214286 0 0 0.214286 0 
0 0.214286 0 0 0.214286 0 0 0.214286 0 
0 0.214286 0 0 0.285714 0 0 0.285714 0 
0 0.285714 0 0 0.285714 0 0 0.285714 0 
0 0.285714 0 0 0.285714 0 0 0.285714 0 
0 0.285714 0 0 0.285714 0 0 0.357143 0 
0 0.357143 0 0 0.357143 0 0 0.357143 0 
0 0.357143 0 0 0.357143 0 0 0.357143 0 
0 0.357143 0 0 0.357143 0 0 0.357143 0 
0 0.428571 0 0 0.428571 0 0 0.428571 0 
0 0.428571 0 0 0.428571 0 0 0.428571 0 
0 0.428571 0 0 0.428571 0 0 0.428571 0 
0 0.428571 0 0 0.5 0 0 0.5 0 
0 0.5 0 0 0.5 0 0 0.5 0 
0 0.5 0 0 0.5 0 0 0.5 0 
0 0.5 0 0 0.5 0 0 0.571429 0 
0 0.571429 0 0 0.571429 0 0 0.571429 0 
0 0.571429 0 0 0.571429 0 0 0.571429 0 
0 0.571429 0 0 0.571429 0 0 0.571429 0 
0 0.642857 0 0 0.642857 0 0 0.642857 0 
0 0.642857 0 0 0.642857 0 0 0.642857 0 
0 0.642857 0 0 0.642857 0 0 0.642857 0 
0 0.642857 0 0 0.714286 0 0 0.714286 0 
0 0.714286 0 0 0.714286 0 0 0.714286 0 
0 0.714286 0 0 0.714286 0 0 0.714286 0 
0 0.714286 0 0 0.714286 0 0 0.785714 0 
0 0.785714 0 0 0.785714 0 0 0.785714 0 
0 0.785714 0 0 0.785714 0 0 0.785714 0 
0 0.785714 0 0 0.785714 0 0 0.785714 0 
0 0.857143 0 0 0.857143 0 0 0.857143 0 
0 0.857143 0 0 0.857143 0 0 0.857143 0 
0 0.857143 0 0 0.857143 0 0 0.857143 0 
0 0.857143 0 0 0.928571 0 0 0.928571 0 
0 0.928571 0 0 0.928571 0 0 0.928571 0 
0 0.928571 0 0 0.928571 0 0 0.928571 0 
0 0.928571 0 0 0.928571 0 0 1 0 
0 1 0 0 1 0 0 1 0 
0 1 0 0 1 0 0 1 0 
0 1 0 0 1 0 0 1 0 
0 0 0.105263 0 0 0.105263 0 0 0.105263 
0 0 0.105263 0 0 0.105263 0 0 0.105263 
0 0 0.105263 0 0 0.105263 0 0 0.105263 
0 0 0.105263 0 0.0714286 0.105263 0 0.0714286 0.105263 
0 0.0714286 0.105263 0 0.0714286 0.105263 0 0.0714286 0.105263 
0 0.0714286 0.105263 0 0.0714286 0.105263 0 0.0714286 0.105263 
0 0.0714286 0.105263 0 0.0714286 0.105263 0 0.142857 0.105263 
0 0.142857 0.105263 0 0.142857 0.105263 0 0.142857 0.105263 
0 0.142857 0.105263 0 0.142857 0.105263 0 0.142857 0.105263 
0 0.142857 0.105263 0 0.142857 0.105263 0 0.142857 0.105263 
0 0.214286 0.105263 0 0.214286 0.105263 0 0.214286 0.105263 
0 0.214286 0.105263 0 0.214286 0.105263 0 0.214286 0.105263 
0 0.214286 0.105263 0 0.214286 0.105263 0 0.214286 0.105263 
0 0.214286 0.105263 0 0.285714 0.105263 0 0.285714 0.105263 
0 0.285714 0.105263 0 0.285714 0.105263 0 0.285714 0.105263 
0 0.285714 0.105263 0 0.285714 0.105263 0 0.285714 0.105263 
0 0.285714 0.105263 0 0.285714 0.105263 0 0.357143 0.105263 
0 0.357143 0.105263 0 0.357143 0.105263 0 0.357143 0.105263 
0 0.357143 0.105263 0 0.357143 0.105263 0 0.357143 0.105263 
0 0.357143 0.105263 0 0.357143 0.105263 0 0.357143 0.105263 
0 0.428571 0.105263 0 0.428571 0.105263 0 0.428571 0.105263 
0 0.428571 0.105263 0 0.428571 0.105263 0 0.428571 0.105263 
0 0.428571 0.105263 0 0.428571 0.105263 0 0.428571 0.105263 
0 0.428571 0.105263 0 0.5 0.105263 0 0.5 0.105263 
0 0.5 0.105263 0 0.5 0.105263 0 0.5 0.105263 
0 0.5 0.105263 0 0.5 0.105263 0 0.5 0.105263 
0 0.5 0.105263 0 0.5 0.105263 0 0.571429 0.105263 
0 0.571429 0.105263 0 0.571429 0.105263 0 0.571429 0.105263 
0 0.571429 0.105263 0 0.571429 0.105263 0 0.571429 0.105263 
0 0.571429 0.105263 0 0.571429 0.105263 0 0.571429 0.105263 
0 0.642857 0.105263 0 0.642857 0.105263 0 0.642857 0.105263 
0 0.642857 0.105263 0 0.642857 0.105263 0 0.642857 0.105263 
0 0.642857 0.105263 0 0.642857 0.105263 0 0.642857 0.105263 
0 0.642857 0.105263 0 0.714286 0.105263 0 0.714286 0.105263 
0 0.714286 0.105263 0 0.714286 0.105263 0 0.714286 0.105263 
0 0.714286 0.105263 0 0.714286 0.105263 0 0.714286 0.105263 
0 0.714286 0.105263 0 0.714286 0.105263 0 0.785714 0.105263 
0 0.785714 0.105263 0 0.785714 0.105263 0 0.785714 0.105263 
0 0.785714 0.105263 0 0.785714 0.105263 0 0.785714 0.105263 
0 0.785714 0.105263 0 0.785714 0.105263 0 0.785714 0.105263 
0 0.857143 0.105263 0 0.857143 0.105263 0 0.857143 0.105263 
0 0.857143 0.105263 0 0.857143 0.105263 0 0.857143 0.105263 
0 0.857143 0.105263 0 0.857143 0.105263 0 0.857143 0.105263 
0 0.857143 0.105263 0 0.928571 0.105263 0 0.928571 0.105263 
0 0.928571 0.105263 0 0.928571 0.105263 0 0.928571 0.105263 
0 0.928571 0.105263 0 0.928571 0.105263 0 0.928571 0.105263 
0 0.928571 0.105263 0 0.928571 0.105263 0 1 0.105263 
0 1 0.105263 0 1 0.105263 0 1 0.105263 
0 1 0.105263 0 1 0.105263 0 1 0.105263 
0 1 0.105263 0 1 0.105263 0 1 0.105263 
0 0 0.210526 0 0 0.210526 0 0 0.210526 
0 0 0.210526 0 0 0.210526 0 0 0.210526 
0 0 0.210526 0 0 0.210526 0 0 0.210526 
0 0 0.210526 0 0.0714286 0.210526 0 0.0714286 0.210526 
0 0.0714286 0.210526 0 0.0714286 0.210526 0 0.0714286 0.210526 
0 0.0714286 0.210526 0 0.0714286 0.210526 0 0.0714286 0.210526 
0 0.0714286 0.210526 0 0.0714286 0.210526 0 0.142857 0.210526 
0 0.142857 0.210526 0 0.142857 0.210526 0 0.142857 0.210526 
0 0.142857 0.210526 0 0.142857 0.210526 0 0.142857 0.210526 
0 0.142857 0.210526 0 0.142857 0.210526 0 0.142857 0.210526 
0 0.214286 0.210526 0 0.214286 0.210526 0 0.214286 0.210526 
0 0.214286 0.210526 0 0.214286 0.210526 0 0.214286 0.210526 
0 0.214286 0.210526 0 0.214286 0.210526 0 0.214286 0.210526 
0 0.214286 0.210526 0 0.285714 0.210526 0 0.285714 0.210526 
0 0.285714 0.210526 0 0.285714 0.210526 0 0.285714 0.210526 
0 0.285714 0.210526 0 0.285714 0.210526 0 0.285714 0.210526 
0 0.285714 0.210526 0 0.285714 0.210526 0 0.357143 0.210526 
0 0.357143 0.210526 0 0.357143 0.210526 0 0.357143 0.210526 
0 0.357143 0.210526 0 0.357143 0.210526 0 0.357143 0.210526 
0 0.357143 0.210526 0 0.357143 0.210526 0 0.357143 0.210526 
0 0.428571 0.210526 0 0.428571 0.210526 0 0.428571 0.210526 
0 0.428571 0.210526 0 0.428571 0.210526 0 0.428571 0.210526 
0 0.428571 0.210526 0 0.428571 0.210526 0 0.428571 0.210526 
0 0.428571 0.210526 0 0.5 0.210526 0 0.5 0.210526 
0 0.5 0.210526 0 0.5 0.210526 0 0.5 0.210526 
0 0.5 0.210526 0 0.5 0.210526 0 0.5 0.210526 
0 0.5 0.210526 0 0.5 0.210526 0 0.571429 0.210526 
0 0.571429 0.210526 0 0.571429 0.210526 0 0.571429 0.210526 
0 0.571429 0.210526 0 0.571429 0.210526 0 0.571429 0.210526 
0 0.571429 0.210526 0 0.571429 0.210526 0 0.571429 0.210526 
0 0.642857 0.210526 0 0.642857 0.210526 0 0.642857 0.210526 
0 0.642857 0.210526 0 0.642857 0.210526 0 0.642857 0.210526 
0 0.642857 0.210526 0 0.642857 0.210526 0 0.642857 0.210526 
0 0.642857 0.210526 0 0.714286 0.210526 0 0.714286 0.210526 
0 0.714286 0.210526 0 0.714286 0.210526 0 0.714286 0.210526 
0 0.714286 0.210526 0 0.714286 0.210526 0 0.714286 0.210526 
0 0.714286 0.210526 0 0.714286 0.210526 0 0.785714 0.210526 
0 0.785714 0.210526 0 0.785714 0.210526 0 0.785714 0.210526 
0 0.785714 0.210526 0 0.785714 0.210526 0 0.785714 0.210526 
0 0.785714 0.210526 0 0.785714 0.210526 0 0.785714 0.210526 
0 0.857143 0.210526 0 0.857143 0.210526 0 0.857143 0.210526 
0 0.857143 0.210526 0 0.857143 0.210526 0 0.857143 0.210526 
0 0.857143 0.210526 0 0.857143 0.210526 0 0.857143 0.210526 
0 0.857143 0.210526 0 0.928571 0.210526 0 0.928571 0.210526 
0 0.928571 0.210526 0 0.928571 0.210526 0 0.928571 0.210526 
0 0.928571 0.210526 0 0.928571 0.210526 0 0.928571 0.210526 
0 0.928571 0.210526 0 0.928571 0.210526 0 1 0.210526 
0 1 0.210526 0 1 0.210526 0 1 0.210526 
0 1 0.210526 0 1 0.210526 0 1 0.210526 
0 1 0.210526 0 1 0.210526 0 1 0.210526 
0 0 0.315789 0 0 0.315789 0 0 0.315789 
0 0 0.315789 0 0 0.315789 0 0 0.315789 
0 0 0.315789 0 0 0.315789 0 0 0.315789 
0 0 0.315789 0 0.0714286 0.315789 0 0.0714286 0.315789 
0 0.0714286 0.315789 0 0.0714286 0.315789 0 0.0714286 0.315789 
0 0.0714286 0.315789 0 0.0714286 0.315789 0 0.0714286 0.315789 
0 0.0714286 0.315789 0 0.0714286 0.315789 0 0.142857 0.315789 
0 0.142857 0.315789 0 0.142857 0.315789 0 0.142857 0.315789 
0 0.142857 0.315789 0 0.142857 0.315789 0 0.142857 0.315789 
0 0.142857 0.315789 0 0.142857 0.315789 0 0.142857 0.315789 
0 0.214286 0.315789 0 0.214286 0.315789 0 0.214286 0.315789 
0 0.214286 0.315789 0 0.214286 0.315789 0 0.214286 0.315789 
0 0.214286 0.315789 0 0.214286 0.315789 0 0.214286 0.315789 
0 0.214286 0.315789 0 0.285714 0.315789 0 0.285714 0.315789 
0 0.285714 0.315789 0 0.285714 0.315789 0 0.285714 0.315789 
0 0.285714 0.315789 0 0.285714 0.315789 0 0.285714 0.315789 
0 0.285714 0.315789 0 0.285714 0.315789 0 0.357143 0.315789 
0 0.357143 0.315789 0 0.357143 0.315789 0 0.357143 0.315789 
0 0.357143 0.315789 0 0.357143 0.315789 0 0.357143 0.315789 
0 0.357143 0.315789 0 0.357143 0.315789 0 0.357143 0.315789 
0 0.428571 0.315789 0 0.428571 0.315789 0 0.428571 0.315789 
0 0.428571 0.315789 0 0.428571 0.315789 0 0.428571 0.315789 
0 0.428571 0.315789 0 0.428571 0.315789 0 0.428571 0.315789 
0 0.428571 0.315789 0 0.5 0.315789 0 0.5 0.315789 
0 0.5 0.315789 0 0.5 0.315789 0 0.5 0.315789 
0 0.5 0.315789 0 0.5 0.315789 0 0.5 0.315789 
0 0.5 0.315789 0 0.5 0.315789 0 0.571429 0.315789 
0 0.571429 0.315789 0 0.571429 0.315789 0 0.571429 0.315789 
0 0.571429 0.315789 0 0.571429 0.315789 0 0.571429 0.315789 
0 0.571429 0.315789 0 0.571429 0.315789 0 0.571429 0.315789 
0 0.642857 0.315789 0 0.642857 0.315789 0 0.642857 0.315789 
0 0.642857 0.315789 0 0.642857 0.315789 0 0.642857 0.315789 
0 0.642857 0.315789 0 0.642857 0.315789 0 0.642857 0.315789 
0 0.642857 0.315789 0 0.714286 0.315789 0 0.714286 0.315789 
0 0.714286 0.315789 0 0.714286 0.315789 0 0.714286 0.315789 
0 0.714286 0.315789 0 0.714286 0.315789 0 0.714286 0.315789 
0 0.714286 0.315789 0 0.714286 0.315789 0 0.785714 0.315789 
0 0.785714 0.315789 0 0.785714 0.315789 0 0.785714 0.315789 
0 0.785714 0.315789 0 0.785714 0.315789 0 0.785714 0.315789 
0 0.785714 0.315789 0 0.785714 0.315789 0 0.785714 0.315789 
[...]
POINT_DATA 3000
FIELD FieldData 9
unknown 1 3000 double
7 7 7 7 7 7 7 7 7 
7 7 7 7 7 7 7 7 7 
7 7 7 7 7 7 7 7 7 
7 7 7 7 7 7 7 7 7 
7 7 7 7 7 7 7 7 7 
7 7 7 7 7 7 7 7 7 
7 7 7 7 7 7 7 7 7 
7 7 7 7 7 7 7 7 7 
7 7 7 7 7 7 7 7 7 
7 7 7 7 7 7 7 7 7 
7 7 7 7 7 7 7 7 7 
7 7 7 7 7 7 7 7 7 
7 7 7 7 7 7 7 7 7 
7 7 7 7 7 7 7 7 7 
7 7 7 7 7 7 7 7 7 
7 7 7 7 7 7 7 7 7 
7 7 7 7 7 7 7 1.7226962188 0.25155005895 
-0.25310961759 -0.46066915003 -0.55746529458 -0.6061527911 -0.63202599374 -0.65594268951 -1 7 3.7871434476 
1.7892372018 0.74388509766 0.20745593505 -0.072385072058 -0.22153298612 -0.30321758162 -0.37096476526 -1 7 
4.9994816618 3.0936666377 1.7629464456 0.93103450457 0.43417118124 0.14346625542 -0.026137905245 -0.15788702107 -1 
7 5.7277375727 4.1164070519 2.7164623163 1.6833307683 0.98366692164 0.53342964486 0.25139886726 0.035713255104 
-1 7 6.1737025928 4.8845031342 3.551580156 2.419660103 1.5619842394 0.95834700149 0.55248224187 
0.2372285616 -1 7 6.4511668067 5.4460178787 4.2477893898 3.1008097135 2.1410266431 1.4078909859 
0.88065223076 0.45748833298 -1 7 6.6259865573 5.8488846888 4.8065650572 3.7012945212 2.6922645429 
1.8626193178 1.2276039125 0.69637727885 -1 7 6.7371941541 6.1338292938 5.241654756 4.2096946218 
3.1936247688 2.3018392878 1.5794339202 0.94722288904 -1 7 6.8084221423 6.3330201975 5.5720803088 
4.6256793102 3.6317448023 2.7082924089 1.9212974927 1.2003380328 -1 7 6.8542468895 6.470851455 
5.817758471 4.9562424993 4.0014794148 3.0702350841 2.2404144563 1.4456949316 -1 7 6.8837990199 
6.5653418759 5.9970856022 5.2123285282 4.3040894933 3.3816655773 2.5275615722 1.6746626846 -1 7 
6.9028644778 6.6295349909 6.1257978221 5.4062115014 4.5449731081 3.6413257651 2.7772395812 1.8807318416 -1 
7 6.9151119829 6.6726090462 6.2163989593 5.5493047821 4.7309471843 3.8504045556 2.9861425249 2.0586690098 
-1 7 6.9226757116 6.7001489707 6.2766261409 5.6482013849 4.8643509003 4.0056862468 3.1462853101 
2.1986481375 -1 7 6.925465796 6.7104972429 6.2997335515 5.6869409366 4.9176464773 4.0688633269 
3.2125197538 2.2573160424 -1 7 1.5697202472 0.014837109193 -0.53080994889 -0.75888202022 -0.86632036922 
-0.92067226893 -0.94934843173 -0.96617703016 -1 7 3.6057349595 1.4541619073 0.31163301425 -0.28090666087 
-0.59223586952 -0.75890719036 -0.84966411177 -0.90351971878 -1 7 4.8463506524 2.7671887526 1.3006667141 
0.37716995782 -0.17716896285 -0.50254883051 -0.69155339258 -0.80813742191 -1 7 5.6118802761 3.8377367723 
2.2855300034 1.1342282273 0.35176837759 -0.15290890764 -0.4679404921 -0.67265351379 -1 7 6.0898457158 
4.6610188249 3.1765785211 1.9115281511 0.95056667483 0.27312933792 -0.18101512833 -0.49369957923 -1 7 
6.3913843318 5.2721164748 3.9333926733 2.6487509879 1.5718515246 0.74830296944 0.1575972123 -0.27399896806 -1 
7 6.5832717343 5.7150263327 4.5477821029 3.3078886371 2.1745107836 1.2418626668 0.52974722507 -0.021951871346 
-1 7 6.7062071687 6.0304656435 5.0296882609 3.8706837458 2.7284701342 1.7253932382 0.91472835127 
0.2502446585 -1 7 6.7853480401 6.2520330457 5.3974476185 4.3336295528 3.2156144923 2.1764563789 
1.2928715219 0.52897458879 -1 7 6.8364493747 6.4058646239 5.6717865741 4.702785512 3.6283335094 
2.5800397656 1.6480311682 0.80135100815 -1 7 6.8694906322 6.511575688 5.8724897024 4.9894287939 
3.9669698692 2.9283124271 1.9687673627 1.0567019008 -1 7 6.8908470739 6.5835131498 6.0167717852 
5.2067824659 4.2369663421 3.2192143645 2.2482524519 1.2871244971 -1 7 6.9045845007 6.6318408744 
6.1184421252 5.3673619604 4.4456301574 3.4537053241 2.4823883385 1.4863886629 -1 7 6.913075882 
6.6627638542 6.1860741227 5.4784134527 4.5953992594 3.6279665067 2.6619947048 1.6432672689 -1 7 
6.9162094654 6.67438752 6.2120305911 5.5219261109 4.6552477514 3.6988826335 2.7362983164 1.7090373152 -1 
7 1.5646888175 0.0054913019035 -0.54300934065 -0.77282338407 -0.88129105412 -0.93623903181 -0.96521778457 -0.9813995071 
-1 7 3.5968540481 1.435483396 0.28541386879 -0.31215077868 -0.62660576787 -0.79514559071 -0.88688497157 
-0.93915626257 -1 7 4.8367388119 2.7445994605 1.2663984912 0.33415064289 -0.22612892238 -0.55530020658 
-0.7464413019 -0.86083039984 -1 7 5.6032223373 3.8153184973 2.2488753067 1.0856200777 0.29426719894 
-0.21651825438 -0.53525839803 -0.73772187326 -1 7 6.0827211167 4.6409433076 3.1413593106 1.8621885569 
0.88975569926 0.20384038742 -0.25583668303 -0.56677235769 -1 7 6.3857890822 5.2551446364 3.9016129522 
2.6017911514 1.5115088571 0.67735526071 0.079247007078 -0.35152548452 -1 7 6.5789673181 5.7011089488 
4.5201268332 3.2649058391 2.1169706871 1.172016546 0.4507659181 -0.1012804848 -1 7 6.702902511 
6.0191818022 5.0060452878 3.8321852508 2.6748912455 1.6582960387 0.83702385243 0.1709459179 -1 7 
6.7827781872 6.2428514385 5.3773060773 4.2994421726 3.1663130961 2.112882077 1.2175334768 0.45085105262 -1 
7 6.8344007139 6.398276693 5.6544957262 4.6723764521 3.5830902371 2.5201408652 1.5755252132 0.72500760457 
-1 7 6.867802002 6.5051507418 5.8574063347 4.9621265212 3.9252735792 2.8718441487 1.8991210507 
0.98234468956 -1 7 6.8894018256 6.5779112365 6.0033311331 5.1819116655 4.1981875089 3.1657129068 
2.1812151848 1.214686904 -1 7 6.9033001962 6.6268043907 6.1061790146 5.3443097049 4.4091246461 
3.4026088326 2.4175500008 1.4156305063 -1 7 6.9118924284 6.6580924762 6.1745974608 5.4566171728 
4.5605144778 3.5786359346 2.598815629 1.5738069718 -1 7 6.9150633863 6.6698536163 6.2008553932 
5.5006198178 4.6210056967 3.6502628277 2.6737959346 1.6401121273 -1 7 1.564501514 0.0050814631704 
-0.54360684806 -0.77355800646 -0.8821183545 -0.9371255624 -0.96613655425 -0.98227269651 -1 7 3.596431984 
1.4344821407 0.28387842443 -0.31409837029 -0.62884164804 -0.79756994358 -0.88941437553 -0.94156097476 -1 7 
4.836184754 2.7431676223 1.2640573756 0.33104199728 -0.2298126953 -0.55938022289 -0.75075435617 -0.86494722522 -1 
7 5.6026395154 3.8136887157 2.2460323714 1.0816521964 0.28938899092 -0.22206355516 -0.54122068437 -0.74345370708 
-1 7 6.0821752644 4.6393040899 3.1383150356 1.8577176426 0.88403813034 0.19714964834 -0.26317351063 
-0.57389405804 -1 7 6.3853090184 5.2536074666 3.8985829963 2.59711107 1.5052772489 0.66983638704 
0.070824150493 -0.35979484143 -1 7 6.5785569868 5.6997175584 4.5172272533 3.2602042166 2.1104561502 
1.1639105444 0.4414844995 -0.11050430633 -1 7 6.7025526989 6.0179344396 5.0033107404 3.8275461212 
2.6682165355 1.6497418627 0.8270191988 0.16088277501 -1 7 6.7824746832 6.2417220532 5.3747179039 
4.2948708296 3.1595084325 2.1039233094 1.2068491795 0.43998360214 -1 7 6.8341290361 6.3972303926 
5.6520079599 4.6678300259 3.576122318 2.5107502099 1.5641329501 0.71330615173 -1 7 6.8675496883 
6.504153317 5.8549651497 4.9575413235 3.9180765228 2.8619544479 1.8869498217 0.96973990558 -1 7 
6.8891592521 6.5769341311 6.0008874068 5.1772240141 4.1906900753 3.1552482046 2.1681839951 1.2011000612 -1 
7 6.9030606614 6.6258269172 6.1036960567 5.3394717289 4.4012749398 3.3915174959 2.4036078479 1.4010142339 
-1 7 6.9116521396 6.6571036021 6.1720590767 5.4516172374 4.5523186949 3.5669518614 2.5840251629 
1.5582373967 -1 7 6.9148221458 6.668857651 6.1982884928 5.49554231 4.6126492198 3.638307335 
2.6586192866 1.6241094302 -1 7 1.5644931005 0.005059424553 -0.54364431605 -0.77361019912 -0.88218288411 
-0.93719900207 -0.96621471145 -0.98234610074 -1 7 3.5964095238 1.43442007 0.28376890409 -0.31425478858 
-0.62903821603 -0.79779589482 -0.88965606022 -0.94178802593 -1 7 4.83614849 2.7430595618 1.2638545999 
0.33073868633 -0.23020642138 -0.55984231259 -0.75125407426 -0.86541751128 -1 7 5.6025913511 3.8135338952 
2.2457221515 1.0811639219 0.28873154893 -0.22285387267 -0.54208656742 -0.74427097533 -1 7 6.0821160903 
4.6391003316 3.1378809456 1.8570005711 0.88303797322 0.19591859812 -0.26454042001 -0.57518919511 -1 7 
6.385237757 5.2533477606 3.8980003646 2.5961079448 1.5038342513 0.66802185384 0.06878331947 -0.36173757061 -1 
7 6.5784708727 5.6993900719 4.5164625695 3.2588435086 2.1084482249 1.1613382994 0.43855633416 -0.11330700523 
-1 7 6.7024481143 6.0175246797 5.0023254207 3.8257477791 2.6655074663 1.6462153851 0.82295880397 
0.15697213352 -1 7 6.7823480631 6.2412157655 5.3734741927 4.2925560611 3.1559619013 2.0992413754 
1.2013994408 0.43469886091 -1 7 6.8339775826 6.396616164 5.6504748389 4.6649319212 3.5716181769 
2.5047286308 1.5570499977 0.7063875269 -1 7 6.8673718005 6.5034243504 5.8531228501 4.954013796 
3.9125256942 2.8544475536 1.8780300358 0.96096160987 -1 7 6.8889547095 6.5760891817 5.998730266 
5.1730483814 4.1840469657 3.1461686859 2.1572912058 1.1903000188 -1 7 6.9028307875 6.6248712497 
6.1012358294 5.33466509 4.3935543642 3.3808649651 2.3907143235 1.38814048 -1 7 6.9114008239 
6.656053782 6.1693391323 5.4462645847 4.5436554724 3.5549071864 2.5693408836 1.5434901916 -1 7 
6.914561521 6.6677668502 6.1954550547 5.4899498712 4.6035697452 3.6256444063 2.6431353262 1.6085218167 -1 
7 1.5644909899 0.0050518462562 -0.54366091862 -0.77363775602 -0.88222060315 -0.93724360123 -0.96626142815 -0.98238752438 
-1 7 3.5964026212 1.4343950245 0.2837136463 -0.3143469454 -0.6291647871 -0.79794592398 -0.88981348621 
-0.94192774892 -1 7 4.8361324714 2.7430004043 1.2637222378 0.33051554851 -0.23051546438 -0.56021104603 
-0.75164291867 -0.86576371834 -1 7 5.6025601112 3.8134166469 2.2454559522 1.0807095465 0.288095605 
-0.22361937077 -0.54289964266 -0.74499857062 -1 7 6.0820618883 4.6388940941 3.1374061471 1.8561796269 
0.88187554627 0.19450483336 -0.26605547224 -0.57655409615 -1 7 6.3851518489 5.2530169727 3.8972287429 
2.5947563549 1.5018967984 0.66563856054 0.066203170977 -0.36408069039 -1 7 6.5783445056 5.6988982849 
4.515300937 3.256782353 2.1054561024 1.157613151 0.43447871889 -0.11704321778 -1 7 6.7022736229 
6.016838953 5.0006862557 3.8228022433 2.6611768853 1.6407569643 0.81691449849 0.15138105311 -1 7 
6.7821198005 6.2403106321 5.3712859627 4.288575333 3.1500356002 2.0916787225 1.1929261078 0.4267839651 -1 
7 6.8336924964 6.3954763437 5.647689849 4.6598058863 3.563893585 2.4947507116 1.5457393564 0.69571845396 
-1 7 6.8670295985 6.5020458609 5.8497214372 4.9476838075 3.9028758457 2.8418360378 1.8635708296 
0.9471913196 -1 7 6.8885577115 6.5744791511 5.9947218032 5.1655124403 4.172433975 3.1308231386 
2.1395065688 1.1732071491 -1 7 6.9023838626 6.6230480838 6.0966607592 5.3259856053 4.3800485727 
3.3628387404 2.3696162168 1.367692608 -1 7 6.910912984 6.6540544885 6.1642904814 5.43661683 
4.5285249611 3.534548135 2.5453211612 1.5200519904 -1 7 6.9140561925 6.6656919567 6.1902019618 
5.4798813971 4.5877284639 3.6042578419 2.6178204161 1.5837509651 -1 7 1.564486592 0.0050359713938 
-0.5436951869 -0.77369307248 -0.88229366554 -0.9373265597 -0.96634463306 -0.98245832477 -1 7 3.5963879331 
1.4343418871 0.2835986603 -0.31453300567 -0.62941109904 -0.79822619415 -0.8900951355 -0.94216779153 -1 7 
4.8360972855 2.7428723075 1.2634430905 0.33006069235 -0.23112163607 -0.56090509277 -0.7523443601 -0.86636434461 -1 
7 5.6024900908 3.8131595325 2.2448901415 1.0797784464 0.28684290997 -0.2250665754 -0.5443743843 -0.74626999768 
-1 7 6.0819396002 4.6384405931 3.1363966344 1.8544987147 0.87958797051 0.19183302819 -0.26880587251 
-0.57894539246 -1 7 6.3849587563 5.2522933741 3.8955979029 2.5920056846 1.4981054502 0.66115584253 
0.061535359323 -0.36817814213 -1 7 6.5780634079 5.6978337821 4.5128711523 3.2526289187 2.0996541395 
1.1506632581 0.42715229111 -0.12354123394 -1 7 6.701890913 6.0153748244 4.9973021866 3.816939477 
2.6528752121 1.630679172 0.80615476206 0.14173496535 -1 7 6.7816270315 6.2384072342 5.3668333095 
4.2807597633 3.1388195185 2.0778805923 1.1780047729 0.41326125615 -1 7 6.8330870152 6.3931166733 
5.6421069462 4.6498834674 3.5494687007 2.4767733447 1.5260527957 0.67768531468 -1 7 6.8663142914 
6.499235562 5.843002505 4.9356022713 3.8850959766 2.8194009751 1.8387036142 0.9241757625 -1 7 
6.8877401753 6.5712440257 5.986913778 5.1513218715 4.1513124995 3.103860805 2.1092786508 1.1449551198 -1 
7 6.9014757836 6.6194322998 6.0878616427 5.30984208 4.3557760025 3.3315287057 2.3341494975 1.3342484041 
-1 7 6.909932434 6.6501311193 6.1546802737 5.4188519528 4.5015968577 3.4995188099 2.5053082558 
1.4820485396 -1 7 6.9130450339 6.6616380506 6.1802453042 5.4614189343 4.559649174 3.5676040523 
2.5758077233 1.5437302788 -1 7 1.564475714 0.0049982958005 -0.5437727266 -0.77381223883 -0.88244361203 
-0.93748900825 -0.96650047251 -0.9825859869 -1 7 3.5963517493 1.4342162344 0.28333931925 -0.31493267752 
-0.62991531463 -0.79877376726 -0.89062158513 -0.94259983834 -1 7 4.8360116391 2.742572639 1.2628194895 
0.32909189953 -0.232353142 -0.56225194128 -0.75364759187 -0.86743958459 -1 7 5.602322522 3.8125671805 
2.2436433651 1.0778195165 0.28432581121 -0.22784730619 -0.54709007267 -0.74852789751 -1 7 6.0816527546 
4.6374146891 3.1342085612 1.8510146437 0.87505312588 0.18676180466 -0.27381466343 -0.58314928507 -1 7 
6.3845155192 5.2506886974 3.8921268029 2.5863981748 1.49070279 0.65276482468 0.053142207953 -0.37529775433 -1 
7 6.5774322666 5.6955210765 4.5077966728 3.2443085279 2.0885071652 1.1378466571 0.41415900284 -0.13468878019 
-1 7 6.7010501366 6.0122581856 4.9903680044 3.8054013411 2.637187195 1.6123785166 0.78734465153 
0.12540719674 -1 7 6.7805668313 6.2344347521 5.3578775706 4.2656450938 3.1179698649 2.0532087643 
1.1522958974 0.39068247162 -1 7 6.8318095589 6.3882830148 5.631075401 4.6310149973 3.523079791 
2.4451131029 1.4926179153 0.64798286366 -1 7 6.8648320181 6.4935775389 5.8299447381 4.912990693 
3.8530615777 2.7804625221 1.7970544554 0.8867671419 -1 7 6.8860732481 6.564832075 5.9719681864 
5.1251505909 4.1137943568 3.0577020903 2.0593145756 1.0996130687 -1 7 6.8996501397 6.6123638075 
6.071243667 5.2804566264 4.3132075121 3.2785878285 2.2762260915 1.2811916114 -1 7 6.9079829004 
6.6425446374 6.1367240436 5.3868535648 4.4548549415 3.4408812153 2.4405945593 1.422324743 -1 7 
6.9110438461 6.6538344127 6.1617239578 5.4283082235 4.5111157829 3.5065008605 2.5081321049 1.4810796348 -1 
7 1.564448626 0.0049089669014 -0.54394682344 -0.77406552546 -0.88274579997 -0.93780014964 -0.96678502628 -0.98280978682 
-1 7 3.596262114 1.4339196597 0.28275932343 -0.31577924634 -0.6309283717 -0.7998197112 -0.8915805281 
-0.94335559274 -1 7 4.8358026153 2.7418745276 1.2614407156 0.3270603681 -0.23480554642 -0.56480433237 
-0.75600470636 -0.86930844812 -1 7 5.6019217889 3.8112119185 2.2409304722 1.0737696037 0.27937639804 
-0.23305749658 -0.55195185943 -0.75241607441 -1 7 6.080982527 4.6351161001 3.129536047 1.8439321974 
0.86627089281 0.17738997854 -0.28267025197 -0.5903063097 -1 7 6.3835048495 5.2471725623 3.8848630539 
2.5752072641 1.4766054984 0.63749412298 0.038510188084 -0.387262962 -1 7 6.5760278183 5.6905664412 
4.497395521 3.2280173243 2.067649348 1.1148973642 0.39184451388 -0.15316475273 -1 7 6.6992227565 
6.0057265596 4.9764431242 3.7832362836 2.6083486942 1.5801470317 0.75553457954 0.098732324584 -1 7 
6.7783130638 6.2262818967 5.3402437422 4.2371422842 3.080305136 2.0104629527 1.1094843658 0.35432649469 -1 
7 6.8291488196 6.3785539345 5.6097527546 4.5960543162 3.4761995971 2.3911245067 1.4377739405 0.60083522573 
-1 7 6.8618010418 6.4823894401 5.8051325693 4.8717759967 3.7970414476 2.7150583509 1.7297168086 
0.82820121366 -1 7 6.8827197473 6.55235228 5.9440024033 5.0781553655 4.0491294053 2.9812515692 
1.9796209518 1.0295458733 -1 7 6.8960281912 6.5987929762 6.040563123 5.2283801783 4.2407782414 
3.1920017001 2.1849612186 1.2001677242 -1 7 6.9041570037 6.6281348302 6.1039228 5.3307381637 
4.3761424336 3.3459459059 2.3396353378 1.3319913212 -1 7 6.9071341073 6.6390775415 6.1280382495 
5.3704931319 4.4297346946 3.4079872481 2.402982332 1.386693478 -1 7 1.5643808206 0.0046979366289 
-0.54433332741 -0.77459441798 -0.8833408529 -0.93837975867 -0.96728836107 -0.98318854461 -1 7 3.5960391477 
1.4332227712 0.28147758508 -0.3175400032 -0.6329163591 -0.80176223714 -0.89327219986 -0.94463154803 -1 7 
4.8352917981 2.7402589774 1.2584336705 0.32288320042 -0.23956997175 -0.56950280603 -0.76013028985 -0.8724415011 -1 
7 5.6009652928 3.8081398799 2.2351202458 1.0655744369 0.26989613427 -0.24252825763 -0.56036577718 -0.7588683856 
-1 7 6.079424414 4.6300270391 3.1197367019 1.829866787 0.84972961986 0.16061040875 -0.29778777871 
-0.60203648406 -1 7 6.3812182056 5.239577156 3.8699647876 2.5534265366 1.4505354382 0.6106054058 
0.013908946903 -0.40660196271 -1 7 6.572933666 5.6801223369 4.4765358064 3.1969566217 2.0298008782 
1.0751868043 0.35492468177 -0.18258659796 -1 7 6.6952970898 5.9922779273 4.9491197342 3.7418258477 
2.5569975696 1.5253467527 0.70375808514 0.056897017721 -1 7 6.7735828935 6.2098598928 5.3063508993 
4.1849177699 3.0144551657 1.9390280763 1.0409207427 0.29816939179 -1 7 6.8236808356 6.3593467123 
5.5695472235 4.5331556746 3.3956499143 2.3023799213 1.3513068854 0.52908321462 -1 7 6.855687219 
6.4606956248 5.759152859 4.7988579609 3.7023293023 2.609205576 1.6251204477 0.7403306273 -1 7 
6.8760637161 6.5285323514 5.8929713539 4.9962530921 3.9413952639 2.8592745102 1.8575303527 0.92580879146 -1 
7 6.8889361879 6.5732349223 5.9853146483 5.1388028193 4.1216557599 3.0555926519 2.0468624608 1.081639525 
-1 7 6.8967433119 6.6012765976 6.0454637123 5.2352048469 4.2480074605 3.197892521 2.1883807557 
1.2011193026 -1 7 6.8995901947 6.6116892084 6.0682580739 5.2724844393 4.2978156962 3.2549958095 
2.246095991 1.250496005 -1 7 1.5642098088 0.0042011191597 -0.5451805851 -0.77567662732 -0.88448180693 
-0.9394255198 -0.96814676398 -0.98380414303 -1 7 3.5954811375 1.4315926244 0.2786829776 -0.32112635665 
-0.63671311602 -0.80525503407 -0.89614854958 -0.94669983272 -1 7 4.8340403149 2.7365474924 1.2519772762 
0.31448653063 -0.24856590316 -0.57786703495 -0.76708361698 -0.87748054613 -1 7 5.5986856067 3.8012490461 
2.222901529 1.0493970166 0.25227884188 -0.25915246802 -0.5743704911 -0.76913038871 -1 7 6.0758206574 
4.6189113225 3.099608403 1.802675859 0.81955852614 0.13164443702 -0.32257593369 -0.62044148489 -1 7 
6.3760866235 5.2234323848 3.8401043683 2.5122423281 1.4039268332 0.56502395937 -0.025769146067 -0.43649177398 -1 
7 6.5661879185 5.6585034237 4.4357300608 3.1395180068 1.9635022473 1.0091207137 0.29639626626 -0.22734364454 
-1 7 6.6869652373 5.9651266627 4.8968969752 3.6668841535 2.4688347914 1.4358626467 0.62308978828 
-0.0057246535535 -1 7 6.7637844236 6.1774570578 5.2429579388 4.0923134188 2.9035514575 1.8244718094 
0.93589799035 0.21544047015 -1 7 6.812594672 6.3222193308 5.4958124515 4.4237036692 3.2624054897 
2.1624814038 1.2209980076 0.42499763637 -1 7 6.843519977 6.4195114135 5.6762937923 4.6741110544 
3.5482159342 2.4449673537 1.4698779358 0.61471062803 -1 7 6.8630242715 6.48400653 5.8024028169 
4.8582272117 3.7686606609 2.6727275917 1.6788440713 0.77949857804 -1 7 6.8752210038 6.526071159 
5.8885160001 4.9897722191 3.9330896014 2.8495963249 1.8472420293 0.91647677785 -1 7 6.8825449992 
6.5521972748 5.9440516077 5.0778508443 4.0472070973 2.9765457447 1.9719039968 1.0205194636 -1 7 
6.8851995789 6.5618411311 5.9649752095 5.1117173995 4.091941816 3.0272128948 2.0224782788 1.0633000754 -1 
7 1.5637739277 0.003035292221 -0.54701122085 -0.77783950582 -0.88660268573 -0.94124343684 -0.96954989518 -0.98475883691 
-1 7 3.5940727401 1.4277973791 0.27268364349 -0.32825545366 -0.64373862665 -0.81130304587 -0.90083421951 
-0.94989784421 -1 7 4.8309624965 2.7280911161 1.2383656797 0.29804940428 -0.26499476576 -0.59218678626 
-0.77829931406 -0.88520440824 -1 7 5.593257842 3.7859789983 2.1977501843 1.0183770882 0.22067997265 
-0.28716726175 -0.59664751743 -0.78466647858 -1 7 6.067529009 4.5950091007 3.0592590467 1.7517438373 
0.76655438872 0.08372514898 -0.36136052644 -0.6478955378 -1 7 6.3646683523 5.1897445306 3.7818418186 
2.4369528899 1.323822064 0.49109721564 -0.086747163516 -0.48035649281 -1 7 6.5516404357 5.6146674397 
4.3581729521 3.037006455 1.852037795 0.90411142512 0.20809774987 -0.29192004023 -1 7 6.6694993877 
5.9115079843 4.80005307 3.5361645753 2.3237376562 1.296422162 0.50360863171 -0.094546644605 -1 7 