# vtk DataFile Version 5.1
vtk output
ASCII
DATASET STRUCTURED_GRID
DIMENSIONS 10 15 20
POINTS 3000 float
0 0 0 0 0 0 0 0 0 
0 0 0 0 0 0 0 0 0 
0 0 0 0 0 0 0 0 0 
0 0 0 0 0.0714286 0 0 0.0714286 0 
0 0.0714286 0 0 0.0714286 0 0 0.0714286 0 
0 0.0714286 0 0 0.0714286 0 0 0.0714286 0 
0 0.0714286 0 0 0.0714286 0 0 0.142857 0 
0 0.142857 0 0 0.142857 0 0 0.142857 0 
0 0.142857 0 0 0.142857 0 0 0.142857 0 
0 0.142857 0 0 0.142857 0 0 0.142857 0 
0 0.214286 0 0 0.214286 0 0 0.214286 0 
0 0.214286 0 0 0.214286 0 0 0.214286 0 
0 0.214286 0 0 0.214286 0 0 0.214286 0 
0 0.214286 0 0 0.285714 0 0 0.285714 0 
0 0.285714 0 0 0.285714 0 0 0.285714 0 
0 0.285714 0 0 0.285714 0 0 0.285714 0 
0 0.285714 0 0 0.285714 0 0 0.357143 0 
0 0.357143 0 0 0.357143 0 0 0.357143 0 
0 0.357143 0 0 0.357143 0 0 0.357143 0 
0 0.357143 0 0 0.357143 0 0 0.357143 0 
0 0.428571 0 0 0.428571 0 0 0.428571 0 
0 0.428571 0 0 0.428571 0 0 0.428571 0 
0 0.428571 0 0 0.428571 0 0 0.428571 0 
0 0.428571 0 0 0.5 0 0 0.5 0 
0 0.5 0 0 0.5 0 0 0.5 0 
0 0.5 0 0 0.5 0 0 0.5 0 
0 0.5 0 0 0.5 0 0 0.571429 0 
0 0.571429 0 0 0.571429 0 0 0.571429 0 
0 0.571429 0 0 0.571429 0 0 0.571429 0 
0 0.571429 0 0 0.571429 0 0 0.571429 0 
0 0.642857 0 0 0.642857 0 0 0.642857 0 
0 0.642857 0 0 0.642857 0 0 0.642857 0 
0 0.642857 0 0 0.642857 0 0 0.642857 0 
0 0.642857 0 0 0.714286 0 0 0.714286 0 
0 0.714286 0 0 0.714286 0 0 0.714286 0 
0 0.714286 0 0 0.714286 0 0 0.714286 0 
0 0.714286 0 0 0.714286 0 0 0.785714 0 
0 0.785714 0 0 0.785714 0 0 0.785714 0 
0 0.785714 0 0 0.785714 0 0 0.785714 0 
0 0.785714 0 0 0.785714 0 0 0.785714 0 
0 0.857143 0 0 0.857143 0 0 0.857143 0 
0 0.857143 0 0 0.857143 0 0 0.857143 0 
0 0.857143 0 0 0.857143 0 0 0.857143 0 
0 0.857143 0 0 0.928571 0 0 0.928571 0 
0 0.928571 0 0 0.928571 0 0 0.928571 0 
0 0.928571 0 0 0.928571 0 0 0.928571 0 
0 0.928571 0 0 0.928571 0 0 1 0 
0 1 0 0 1 0 0 1 0 
0 1 0 0 1 0 0 1 0 
0 1 0 0 1 0 0 1 0 
0 0 0.105263 0 0 0.105263 0 0 0.105263 
0 0 0.105263 0 0 0.105263 0 0 0.105263 
0 0 0.105263 0 0 0.105263 0 0 0.105263 
0 0 0.105263 0 0.0714286 0.105263 0 0.0714286 0.105263 
0 0.0714286 0.105263 0 0.0714286 0.105263 0 0.0714286 0.105263 
0 0.0714286 0.105263 0 0.0714286 0.105263 0 0.0714286 0.105263 
0 0.0714286 0.105263 0 0.0714286 0.105263 0 0.142857 0.105263 
0 0.142857 0.105263 0 0.142857 0.105263 0 0.142857 0.105263 
0 0.142857 0.105263 0 0.142857 0.105263 0 0.142857 0.105263 
0 0.142857 0.105263 0 0.142857 0.105263 0 0.142857 0.105263 
0 0.214286 0.105263 0 0.214286 0.105263 0 0.214286 0.105263 
0 0.214286 0.105263 0 0.214286 0.105263 0 0.214286 0.105263 
0 0.214286 0.105263 0 0.214286 0.105263 0 0.214286 0.105263 
0 0.214286 0.105263 0 0.285714 0.105263 0 0.285714 0.105263 
0 0.285714 0.105263 0 0.285714 0.105263 0 0.285714 0.105263 
0 0.285714 0.105263 0 0.285714 0.105263 0 0.285714 0.105263 
0 0.285714 0.105263 0 0.285714 0.105263 0 0.357143 0.105263 
0 0.357143 0.105263 0 0.357143 0.105263 0 0.357143 0.105263 
0 0.357143 0.105263 0 0.357143 0.105263 0 0.357143 0.105263 
0 0.357143 0.105263 0 0.357143 0.105263 0 0.357143 0.105263 
0 0.428571 0.105263 0 0.428571 0.105263 0 0.428571 0.105263 
0 0.428571 0.105263 0 0.428571 0.105263 0 0.428571 0.105263 
0 0.428571 0.105263 0 0.428571 0.105263 0 0.428571 0.105263 
0 0.428571 0.105263 0 0.5 0.105263 0 0.5 0.105263 
0 0.5 0.105263 0 0.5 0.105263 0 0.5 0.105263 
0 0.5 0.105263 0 0.5 0.105263 0 0.5 0.105263 
0 0.5 0.105263 0 0.5 0.105263 0 0.571429 0.105263 
0 0.571429 0.105263 0 0.571429 0.105263 0 0.571429 0.105263 
0 0.571429 0.105263 0 0.571429 0.105263 0 0.571429 0.105263 
0 0.571429 0.105263 0 0.571429 0.105263 0 0.571429 0.105263 
0 0.642857 0.105263 0 0.642857 0.105263 0 0.642857 0.105263 
0 0.642857 0.105263 0 0.642857 0.105263 0 0.642857 0.105263 
0 0.642857 0.105263 0 0.642857 0.105263 0 0.642857 0.105263 
0 0.642857 0.105263 0 0.714286 0.105263 0 0.714286 0.105263 
0 0.714286 0.105263 0 0.714286 0.105263 0 0.714286 0.105263 
0 0.714286 0.105263 0 0.714286 0.105263 0 0.714286 0.105263 
0 0.714286 0.105263 0 0.714286 0.105263 0 0.785714 0.105263 
0 0.785714 0.105263 0 0.785714 0.105263 0 0.785714 0.105263 
0 0.785714 0.105263 0 0.785714 0.105263 0 0.785714 0.105263 
0 0.785714 0.105263 0 0.785714 0.105263 0 0.785714 0.105263 
0 0.857143 0.105263 0 0.857143 0.105263 0 0.857143 0.105263 
0 0.857143 0.105263 0 0.857143 0.105263 0 0.857143 0.105263 
0 0.857143 0.105263 0 0.857143 0.105263 0 0.857143 0.105263 
0 0.857143 0.105263 0 0.928571 0.105263 0 0.928571 0.105263 
0 0.928571 0.105263 0 0.928571 0.105263 0 0.928571 0.105263 
0 0.928571 0.105263 0 0.928571 0.105263 0 0.928571 0.105263 
0 0.928571 0.105263 0 0.928571 0.105263 0 1 0.105263 
0 1 0.105263 0 1 0.105263 0 1 0.105263 
0 1 0.105263 0 1 0.105263 0 1 0.105263 
0 1 0.105263 0 1 0.105263 0 1 0.105263 
0 0 0.210526 0 0 0.210526 0 0 0.210526 
0 0 0.210526 0 0 0.210526 0 0 0.210526 
0 0 0.210526 0 0 0.210526 0 0 0.210526 
0 0 0.210526 0 0.0714286 0.210526 0 0.0714286 0.210526 
0 0.0714286 0.210526 0 0.0714286 0.210526 0 0.0714286 0.210526 
0 0.0714286 0.210526 0 0.0714286 0.210526 0 0.0714286 0.210526 
0 0.0714286 0.210526 0 0.0714286 0.210526 0 0.142857 0.210526 
0 0.142857 0.210526 0 0.142857 0.210526 0 0.142857 0.210526 
0 0.142857 0.210526 0 0.142857 0.210526 0 0.142857 0.210526 
0 0.142857 0.210526 0 0.142857 0.210526 0 0.142857 0.210526 
0 0.214286 0.210526 0 0.214286 0.210526 0 0.214286 0.210526 
0 0.214286 0.210526 0 0.214286 0.210526 0 0.214286 0.210526 
0 0.214286 0.210526 0 0.214286 0.210526 0 0.214286 0.210526 
0 0.214286 0.210526 0 0.285714 0.210526 0 0.285714 0.210526 
0 0.285714 0.210526 0 0.285714 0.210526 0 0.285714 0.210526 
0 0.285714 0.210526 0 0.285714 0.210526 0 0.285714 0.210526 
0 0.285714 0.210526 0 0.285714 0.210526 0 0.357143 0.210526 
0 0.357143 0.210526 0 0.357143 0.210526 0 0.357143 0.210526 
0 0.357143 0.210526 0 0.357143 0.210526 0 0.357143 0.210526 
0 0.357143 0.210526 0 0.357143 0.210526 0 0.357143 0.210526 
0 0.428571 0.210526 0 0.428571 0.210526 0 0.428571 0.210526 
0 0.428571 0.210526 0 0.428571 0.210526 0 0.428571 0.210526 
0 0.428571 0.210526 0 0.428571 0.210526 0 0.428571 0.210526 
0 0.428571 0.210526 0 0.5 0.210526 0 0.5 0.210526 
0 0.5 0.210526 0 0.5 0.210526 0 0.5 0.210526 
0 0.5 0.210526 0 0.5 0.210526 0 0.5 0.210526 
0 0.5 0.210526 0 0.5 0.210526 0 0.571429 0.210526 
0 0.571429 0.210526 0 0.571429 0.210526 0 0.571429 0.210526 
0 0.571429 0.210526 0 0.571429 0.210526 0 0.571429 0.210526 
0 0.571429 0.210526 0 0.571429 0.210526 0 0.571429 0.210526 
0 0.642857 0.210526 0 0.642857 0.210526 0 0.642857 0.210526 
0 0.642857 0.210526 0 0.642857 0.210526 0 0.642857 0.210526 
0 0.642857 0.210526 0 0.642857 0.210526 0 0.642857 0.210526 
0 0.642857 0.210526 0 0.714286 0.210526 0 0.714286 0.210526 
0 0.714286 0.210526 0 0.714286 0.210526 0 0.714286 0.210526 
0 0.714286 0.210526 0 0.714286 0.210526 0 0.714286 0.210526 
0 0.714286 0.210526 0 0.714286 0.210526 0 0.785714 0.210526 
0 0.785714 0.210526 0 0.785714 0.210526 0 0.785714 0.210526 
0 0.785714 0.210526 0 0.785714 0.210526 0 0.785714 0.210526 
0 0.785714 0.210526 0 0.785714 0.210526 0 0.785714 0.210526 
0 0.857143 0.210526 0 0.857143 0.210526 0 0.857143 0.210526 
0 0.857143 0.210526 0 0.857143 0.210526 0 0.857143 0.210526 
0 0.857143 0.210526 0 0.857143 0.210526 0 0.857143 0.210526 
0 0.857143 0.210526 0 0.928571 0.210526 0 0.928571 0.210526 
0 0.928571 0.210526 0 0.928571 0.210526 0 0.928571 0.210526 
0 0.928571 0.210526 0 0.928571 0.210526 0 0.928571 0.210526 
0 0.928571 0.210526 0 0.928571 0.210526 0 1 0.210526 
0 1 0.210526 0 1 0.210526 0 1 0.210526 
0 1 0.210526 0 1 0.210526 0 1 0.210526 
0 1 0.210526 0 1 0.210526 0 1 0.210526 
0 0 0.315789 0 0 0.315789 0 0 0.315789 
0 0 0.315789 0 0 0.315789 0 0 0.315789 
0 0 0.315789 0 0 0.315789 0 0 0.315789 
0 0 0.315789 0 0.0714286 0.315789 0 0.0714286 0.315789 
0 0.0714286 0.315789 0 0.0714286 0.315789 0 0.0714286 0.315789 
0 0.0714286 0.315789 0 0.0714286 0.315789 0 0.0714286 0.315789 
0 0.0714286 0.315789 0 0.0714286 0.315789 0 0.142857 0.315789 
0 0.142857 0.315789 0 0.142857 0.315789 0 0.142857 0.315789 
0 0.142857 0.315789 0 0.142857 0.315789 0 0.142857 0.315789 
0 0.142857 0.315789 0 0.142857 0.315789 0 0.142857 0.315789 
0 0.214286 0.315789 0 0.214286 0.315789 0 0.214286 0.315789 
0 0.214286 0.315789 0 0.214286 0.315789 0 0.214286 0.315789 
0 0.214286 0.315789 0 0.214286 0.315789 0 0.214286 0.315789 
0 0.214286 0.315789 0 0.285714 0.315789 0 0.285714 0.315789 
0 0.285714 0.315789 0 0.285714 0.315789 0 0.285714 0.315789 
0 0.285714 0.315789 0 0.285714 0.315789 0 0.285714 0.315789 
0 0.285714 0.315789 0 0.285714 0.315789 0 0.357143 0.315789 
0 0.357143 0.315789 0 0.357143 0.315789 0 0.357143 0.315789 
0 0.357143 0.315789 0 0.357143 0.315789 0 0.357143 0.315789 
0 0.357143 0.315789 0 0.357143 0.315789 0 0.357143 0.315789 
0 0.428571 0.315789 0 0.428571 0.315789 0 0.428571 0.315789 
0 0.428571 0.315789 0 0.428571 0.315789 0 0.428571 0.315789 
0 0.428571 0.315789 0 0.428571 0.315789 0 0.428571 0.315789 
0 0.428571 0.315789 0 0.5 0.315789 0 0.5 0.315789 
0 0.5 0.315789 0 0.5 0.315789 0 0.5 0.315789 
0 0.5 0.315789 0 0.5 0.315789 0 0.5 0.315789 
0 0.5 0.315789 0 0.5 0.315789 0 0.571429 0.315789 
0 0.571429 0.315789 0 0.571429 0.315789 0 0.571429 0.315789 
0 0.571429 0.315789 0 0.571429 0.315789 0 0.571429 0.315789 
0 0.571429 0.315789 0 0.571429 0.315789 0 0.571429 0.315789 
0 0.642857 0.315789 0 0.642857 0.315789 0 0.642857 0.315789 
0 0.642857 0.315789 0 0.642857 0.315789 0 0.642857 0.315789 
0 0.642857 0.315789 0 0.642857 0.315789 0 0.642857 0.315789 
0 0.642857 0.315789 0 0.714286 0.315789 0 0.714286 0.315789 
0 0.714286 0.315789 0 0.714286 0.315789 0 0.714286 0.315789 
0 0.714286 0.315789 0 0.714286 0.315789 0 0.714286 0.315789 
0 0.714286 0.315789 0 0.714286 0.315789 0 0.785714 0.315789 
0 0.785714 0.315789 0 0.785714 0.315789 0 0.785714 0.315789 
0 0.785714 0.315789 0 0.785714 0.315789 0 0.785714 0.315789 
0 0.785714 0.315789 0 0.785714 0.315789 0 0.785714 0.315789 
[...]
POINT_DATA 3000
FIELD FieldData 11
unknown 1 3000 double
7 7 7 7 7 7 7 7 7 
7 7 7 7 7 7 7 7 7 
7 7 7 7 7 7 7 7 7 
7 7 7 7 7 7 7 7 7 
7 7 7 7 7 7 7 7 7 
7 7 7 7 7 7 7 7 7 
7 7 7 7 7 7 7 7 7 
7 7 7 7 7 7 7 7 7 
7 7 7 7 7 7 7 7 7 
7 7 7 7 7 7 7 7 7 
7 7 7 7 7 7 7 7 7 
7 7 7 7 7 7 7 7 7 
7 7 7 7 7 7 7 7 7 
7 7 7 7 7 7 7 7 7 
7 7 7 7 7 7 7 7 7 
7 7 7 7 7 7 7 7 7 
7 7 7 7 7 7 7 1.7230726636 0.25265279063 
-0.2511922949 -0.45814560237 -0.55469617597 -0.60348590999 -0.62970630025 -0.65417722468 -1 7 3.7883718611 
1.7928584532 0.75021816631 0.2158342411 -0.063150321135 -0.21260461579 -0.2954256072 -0.36501885826 -1 7 
5.0022398982 3.1019363177 1.7776444753 0.95076352951 0.45619743125 0.16500239089 -0.0071592181408 -0.1432926807 -1 
7 5.7327783144 4.1318442678 2.7444838714 1.7216839621 1.027245655 0.57671288804 0.29007188 0.065783206544 
-1 7 6.181716566 4.9096027091 3.5982054257 2.484892927 1.6376227026 1.0348712606 0.62199178982 
0.29200432579 -1 7 6.4626704471 5.4828462456 4.31781819 3.2010424243 2.2597709547 1.5304419065 
0.99400031163 0.54814952156 -1 7 6.6412612673 5.8988000702 4.9036398587 3.8433978748 2.8642950017 
2.0438269863 1.3983889699 0.83513591257 -1 7 6.75627963 6.1973717424 5.3678595183 4.3984537157 
3.4270051401 2.55269218 1.8203725791 1.1461146838 -1 7 6.831150416 6.4099560173 5.7278515679 
4.8633793072 3.9315823527 3.0369335724 2.2428467674 1.4699678402 -1 7 6.880298279 6.5603222893 
6.0020557336 5.2426796412 4.3695999825 3.4812424259 2.6497486687 1.7941726717 -1 7 6.9127628749 
6.6660603399 6.2077213502 5.5451454104 4.7391811307 3.8758565186 3.0280218524 2.1068759882 -1 7 
6.9342916502 6.7399732815 6.3598092817 5.7813827942 5.0430092241 4.2159275789 3.3681518478 2.397903351 -1 
7 6.9485449335 6.791115312 6.4702891822 5.9614501369 5.2854110251 4.4989925428 3.6623452711 2.6575858718 
-1 7 6.9576106677 6.8247917518 6.5459392988 6.0896578533 5.4645362796 4.7155174331 3.894517402 
2.8677409472 -1 7 6.961014408 6.8376673495 6.5754639866 6.1407291337 5.537283723 4.8050337372 
3.9920435333 2.9571451182 -1 7 1.570139466 0.016066384719 -0.52867133323 -0.7560670081 -0.86323309077 
-0.91770282735 -0.94677135986 -0.9642216147 -1 7 3.6071034189 1.4581999007 0.31869894967 -0.27155813074 
-0.58193702601 -0.74896240574 -0.84100377594 -0.89693034717 -1 7 4.8494259582 2.7764170844 1.3170772376 
0.3991994168 -0.15258547458 -0.4785389074 -0.67043527485 -0.7919397107 -1 7 5.6175060052 3.8549788662 
2.3168428867 1.1770902603 0.40045217985 -0.10460079687 -0.42484881752 -0.639221482 -1 7 6.0987982696 
4.6890775117 3.2287239207 1.984491868 1.0351440222 0.35862952763 -0.10346010748 -0.43269623251 -1 7 
6.4042462435 5.3133192674 4.0117719261 2.7609488088 1.7047392 0.88535976136 0.28421382905 -0.17288085029 -1 
7 6.6003624591 5.7709085627 4.656503432 3.4670601841 2.3671670126 1.444681999 0.72071056224 0.13299937734 
-1 7 6.7275746478 6.1016441077 5.1711110823 4.08222969 2.9899817115 2.006345014 1.1843421586 
0.47255811337 -1 7 6.8108063129 6.3382537592 5.5720783588 4.6001397248 3.5517449566 2.5447129157 
1.6529010012 0.83057237087 -1 7 6.8656411631 6.5061691961 5.8784675185 5.0240469069 4.0411520491 
3.0407599473 2.1065457246 1.1913456077 -1 7 6.9019555914 6.6245209254 6.1087689842 5.362800547 
4.4550099302 3.4824185385 2.5295178804 1.5405749662 -1 7 6.926080913 6.7073834015 6.2793217203 
5.6277422471 4.7957016213 3.8635839883 2.9104674031 1.8662302196 -1 7 6.9420730419 6.7647795418 
6.4033316313 5.8298601158 5.0677307027 4.1811074568 3.2402507968 2.15709667 -1 7 6.9522527702 
6.802599473 6.4882937258 5.9738354755 5.2688311304 4.424081093 3.5006071069 2.3925852207 -1 7 
6.9560761098 6.8170634718 6.5214603966 6.0311982679 5.3505151064 4.524543933 3.6099843311 2.4927785728 -1 
7 1.5651121694 0.0067329331124 -0.54084913468 -0.76998041459 -0.87817446093 -0.93324375626 -0.96262152065 -0.97943267144 
-1 7 3.598236112 1.4395622731 0.29255163066 -0.30270874156 -0.61620833221 -0.7851133634 -0.87815910486 
-0.93252736503 -1 7 4.8398453483 2.7539230291 1.2829788907 0.35640462057 -0.2013049948 -0.53107325055 
-0.7251567095 -0.84452876422 -1 7 5.6089066421 3.8327426168 2.2805194278 1.1289287609 0.34343923224 
-0.16775936585 -0.49181097932 -0.70405892589 -1 7 6.0917691756 4.6693048493 3.194068041 1.9359289181 
0.9752013497 0.29016192901 -0.17761443746 -0.50531972955 -1 7 6.3987911774 5.2968009171 3.9808545158 
2.7152048238 1.6457871298 0.81575922573 0.20698812647 -0.24962557432 -1 7 6.5962476454 5.7576160969 
4.6300616843 3.4258258006 2.3116706174 1.3768605891 0.64346103441 0.054907534959 -1 7 6.7245103198 
6.0911658626 5.1490630197 4.046075553 2.9391987457 1.9420745473 1.1091073187 0.39506234017 -1 7 
6.8085256471 6.3300560159 5.5539185871 4.5689182466 3.506045022 2.4848453421 1.5808600773 0.75489835036 -1 
7 6.8639262063 6.4997311277 5.8635278684 4.9972124712 4.0003179593 2.9854686371 2.0381984608 1.1181330207 
-1 7 6.9006392665 6.6193925878 6.0963708377 5.33963573 4.4184848937 3.4314219386 2.4648659537 
1.4700124748 -1 7 6.9250399401 6.7032016971 6.2688532092 5.6075016796 4.7627722133 3.8163319735 
2.8491797296 1.7981843985 -1 7 6.9412182473 6.7612622218 6.3942741683 5.8118453229 5.0376416636 
4.1369142371 3.1817939274 2.0912214039 -1 7 6.9515170551 6.7995195225 6.4801953492 5.9573810111 
5.2407895161 4.3821456187 3.4442789449 2.3283625659 -1 7 6.9553850504 6.8141500189 6.5137332422 
6.0153573925 5.3232899478 4.4835190797 3.5545217485 2.4292308002 -1 7 1.5649251206 0.0063237520787 
-0.5414458463 -0.77071480101 -0.87900291218 -0.93413340155 -0.96354541259 -0.98031189956 -1 7 3.5978148842 
1.4385631814 0.29101879737 -0.30465560882 -0.61844815718 -0.78754828488 -0.88070586068 -0.93495252733 -1 7 
4.8392931899 2.752496123 1.280643652 0.35329717517 -0.20499905341 -0.5351799116 -0.72951323787 -0.84869675123 -1 
7 5.6083272971 3.8311218553 2.2776868688 1.1249612764 0.33853745564 -0.17336244166 -0.4978664036 -0.70989999375 
-1 7 6.0912287421 4.6676795319 3.1910385201 1.9314532823 0.96943410664 0.28335748143 -0.18513142374 
-0.51265157357 -1 7 6.3983185042 5.2952821408 3.9778408608 2.7105053993 1.6394580685 0.80803234775 
0.19824229808 -0.25826910442 -1 7 6.5958462506 5.7562455525 4.6271733418 3.4210737378 2.3049778252 
1.3683971647 0.63363572035 0.045058033885 -1 7 6.7241700912 6.0899379862 5.1463239092 4.0413307936 
2.9322196783 1.9329404397 1.0982358595 0.38400839043 -1 7 6.8082310919 6.3289394557 5.5512957507 
4.5641553151 3.4987537308 2.4749949537 1.568862349 0.74253714814 -1 7 6.8636613426 6.4986848069 
5.8609588577 4.9923535446 3.9926179857 2.9747747488 2.0249072223 1.1042793907 -1 7 6.9003901144 
6.6183760135 6.093785083 5.3345816537 4.4102461896 3.4197153163 2.450067037 1.4544354007 -1 7 
6.9247955472 6.7021807944 6.2661868479 5.6021574349 4.7538664074 3.8034446703 2.8326611915 1.7806552632 -1 
7 6.9409710226 6.7602126682 6.3914809799 5.8061429785 5.0279801254 4.1227344049 3.1634168549 2.0715898304 
-1 7 6.9512633127 6.7984311514 6.47726273 5.9513186912 5.2303981548 4.366738942 3.4241484233 
2.3067492388 -1 7 6.9551276768 6.8130418671 6.5107333756 6.0091263934 5.3125613999 4.4675490821 
3.5335876849 2.406709316 -1 7 1.5649165347 0.0063009624044 -0.54148532974 -0.7707710545 -0.87907410256 
-0.93421615236 -0.96363491723 -0.98039665638 -1 7 3.5977918377 1.4384985568 0.29090242265 -0.30482584593 
-0.61866741055 -0.7878059781 -0.88098626549 -0.93521834631 -1 7 4.8392554446 2.7523816165 1.2804235666 
0.35295890469 -0.20545031193 -0.53572272526 -0.73011169802 -0.84926612744 -1 7 5.6082759532 3.8309532145 
2.2773394976 1.1243977658 0.33775574431 -0.17432783617 -0.49894731835 -0.71093378774 -1 7 6.0911634898 
4.6674493694 3.1905333239 1.9305916918 0.96819412191 0.28178678897 -0.18691766015 -0.51437079207 -1 7 
6.3982366461 5.2949763896 3.977133905 2.7092484623 1.63759151 0.80561427588 0.19545174106 -0.2609739751 -1 
7 6.5957430369 5.7558436803 4.6262071204 3.4192994217 2.3022752666 1.3648282557 0.62946089963 0.040980660723 
-1 7 6.7240396924 6.0894157157 5.1450324863 4.0389005418 2.9284419299 1.927869041 1.0922284831 
0.37809442106 -1 7 6.8080677034 6.3282725062 5.5496128666 4.5609281528 3.4936527075 2.4680478664 
1.5605352623 0.73427202263 -1 7 6.8634601246 6.4978524813 5.8588265242 4.9882022566 3.9859623266 
2.9655922686 2.0137761789 1.0931388701 -1 7 6.9001478377 6.6173639441 6.0911608635 5.3294077498 
4.4018468782 3.4079889106 2.43569881 1.4399353733 -1 7 6.9245109743 6.7009828027 6.2630494882 
5.5959041253 4.7436012746 3.7889562376 2.8147276456 1.762411158 -1 7 6.9406453588 6.7588330924 
6.3878379342 5.7988135668 5.0158303692 4.1054175095 3.1417829074 2.0494166248 -1 7 6.9509021882 
6.7968940903 6.473177673 5.9430394941 5.2165669376 4.3468700287 3.3991392551 2.28096023 -1 7 
6.9547509959 6.8114355378 6.5064531315 6.0004257405 5.2979800628 4.446535413 3.507056482 2.3792827815 -1 
7 1.5649140243 0.0062917368619 -0.5415061079 -0.77080660055 -0.87912433157 -0.93427751701 -0.96370129882 -0.98045715213 
-1 7 3.5977835805 1.4384679265 0.29083299262 -0.30494515089 -0.61883654463 -0.78801311903 -0.88121075848 
-0.93542317773 -1 7 4.8392360449 2.7523084856 1.2802556334 0.3526673883 -0.20586694873 -0.53623635151 
-0.73067127711 -0.84977855528 -1 7 5.6082375825 3.8308063943 2.2769976727 1.1237972672 0.33688864854 
-0.17540627443 -0.50013101911 -0.71202372741 -1 7 6.0910959398 4.6671875394 3.1899155459 1.9294927149 
0.96658893886 0.27976960083 -0.18915193979 -0.51644258278 -1 7 6.3981279921 5.2945504095 3.9761158643 
2.7074141729 1.6348794521 0.80216710243 0.19159409423 -0.26458045106 -1 7 6.5955808147 5.7552010576 
4.6246522795 3.4164618581 2.2980266847 1.3593626743 0.62327615566 0.035146346289 -1 7 6.7238123103 
6.0885062894 5.1428058862 4.0347853322 2.9222015587 1.9197411661 1.0829238476 0.36923316075 -1 7 
6.8077657656 6.3270540805 5.5465958116 4.5552829324 3.4849837444 2.456615586 1.5472925901 0.72153688672 -1 
7 6.8630774036 6.4962952788 5.8549292006 4.9808232244 3.9744911171 2.9502780672 1.995827559 1.0757089683 
-1 7 6.8996817729 6.6154532409 6.0863309491 5.3201601335 4.3873011226 3.3883386948 2.41240328 
1.4170958284 -1 7 6.9239627839 6.6987200045 6.2572770761 5.5847366103 4.7258412152 3.7646931098 
2.78564807 1.7336389662 -1 7 6.9400203524 6.7562377221 6.3811632966 5.7857799032 4.9948952782 
4.0765233632 3.1068059605 2.0145184022 -1 7 6.9502127977 6.7940177608 6.4657325233 5.9283922338 
5.1928503927 4.3138653073 3.3588618731 2.2404997939 -1 7 6.9540337554 6.808437199 6.4986715711 
5.9850696284 5.2730337171 4.4117014695 3.464405954 2.3363196896 -1 7 1.5649088277 0.0062726398002 
-0.54154832572 -0.77087667554 -0.87921978925 -0.93438955347 -0.9638175792 -0.98055920955 -1 7 3.5977661926 
1.4384038862 0.29069107494 -0.30518127737 -0.61915893322 -0.78839230015 -0.88160506052 -0.93576979307 -1 7 
4.8391941622 2.7521532691 1.2799092556 0.35208705914 -0.20666454496 -0.53718026515 -0.73165837146 -0.85065026398 -1 
7 5.6081535676 3.830492377 2.2762900617 1.1226000068 0.3352275046 -0.17738973322 -0.50222221648 -0.71388286613 
-1 7 6.0909477514 4.6666282044 3.1886406022 1.9273100475 0.96352572679 0.27607203611 -0.19308972223 
-0.5199724663 -1 7 6.3978913319 5.2936477974 3.9740327915 2.7038017003 1.629744678 0.79589278597 
0.18483565426 -0.27069612661 -1 7 6.5952319958 5.7538566571 4.6215098795 3.4109385108 2.2900696376 
1.3495122369 0.61253498075 0.025327339986 -1 7 6.7233311518 6.0866328085 5.1383711961 4.0268844124 
2.9106626694 1.9052638985 1.0669358309 0.35446213682 -1 7 6.8071378763 6.3245854771 5.5406807613 
4.5446040917 3.4691751698 2.4365135797 1.5248068156 0.70053861092 -1 7 6.8622954689 6.4931931989 
5.8474100997 4.9670750636 3.9538697565 2.923709509 1.9657304796 1.0473025463 -1 7 6.8987457777 
6.6117092575 6.0771583028 5.3031871021 4.3615225544 3.354703907 2.3738327126 1.3803141715 -1 7 
6.922879486 6.6943546698 6.2464774492 5.5645318916 4.6947951241 3.7237022485 2.7380947874 1.6878447298 -1 
7 6.9388030878 6.7513009419 6.3688447627 5.7625067168 4.9587585271 4.0282965127 3.0502662256 1.9595819275 
-1 7 6.9488858121 6.7886087139 6.4521433052 5.9025164067 5.1523331343 4.2593215843 3.2943690663 
2.1773814421 -1 7 6.9526598586 6.802825318 6.484533259 5.9580613522 5.2305966995 4.354369549 
3.3963790219 2.2695456227 -1 7 1.5648963974 0.006228836731 -0.54164056138 -0.77102228368 -0.8794085727 
-0.93460080069 -0.96402718907 -0.98073633307 -1 7 3.5977247733 1.438257545 0.29038204661 -0.30567048217 
-0.61979484996 -0.78910559962 -0.88231437596 -0.93637024738 -1 7 4.8390956172 2.7518024666 1.27916235 
0.35089511084 -0.20822575833 -0.53894379897 -0.73342326907 -0.85215212466 -1 7 5.6079593081 3.8297937241 
2.2747854504 1.1201714898 0.33201212461 -0.18105855657 -0.50592779741 -0.71706012312 -1 7 6.0906121016 
4.6654068372 3.1859750335 1.9229495264 0.95767716027 0.26931676161 -0.1999897649 -0.52594393882 -1 7 
6.397367115 5.2917167678 3.9697580259 2.6967059703 1.6200909196 0.78458986319 0.17314385378 -0.28092119306 -1 
7 6.5944768138 5.7510407722 4.6151856569 3.4002817974 2.2753537284 1.3320332742 0.59420970969 0.009119845676 
-1 7 6.7223127692 6.0827908913 5.1296197912 4.0119155523 2.8896797704 1.8799740857 1.0400522121 
0.33040773638 -1 7 6.8058376067 6.3196261895 5.5292308349 4.5247338859 3.4409090077 2.4019478786 
1.4875507665 0.66681223069 -1 7 6.8607091795 6.4870820335 5.8331220047 4.9419368432 3.9176011961 
2.8787293987 1.9165884248 1.0023031977 -1 7 6.8968828027 6.6044670105 6.0600291692 5.2726632599 
4.3168944142 3.2986099266 2.3117466417 1.3228301834 -1 7 6.9207603156 6.686050377 6.2266316099 
5.5287531206 4.6418384997 3.6563040409 2.6625807115 1.6171958913 -1 7 6.9364577806 6.7420472814 
6.3465295322 5.7218615139 4.8979385233 3.9500177236 2.961588007 1.8758299739 -1 7 6.9463598276 
6.7785887154 6.4278073709 5.8578277127 5.0848751157 4.1717118226 3.194231416 2.0820824106 -1 7 
6.9500575954 6.7924801012 6.4593338313 5.9116313975 5.1602572563 4.2626773528 3.2911903225 2.1691260463 -1 
7 1.5648663727 0.0061281921463 -0.54184097969 -0.77132136878 -0.87977574237 -0.93499081664 -0.96439579583 -0.98103527855 
-1 7 3.5976252586 1.4379228546 0.2897132515 -0.30667181449 -0.62102785916 -0.79041895131 -0.8835587171 
-0.93738148078 -1 7 4.838862434 2.7510107989 1.2775646188 0.34848011639 -0.21122580136 -0.54216514322 
-0.73649754012 -0.85466537137 -1 7 5.6075091146 3.8282459125 2.2716189535 1.115321585 0.32591210997 
-0.18768397707 -0.51231675185 -0.72232805033 -1 7 6.0898526096 4.6627585227 3.180472056 1.914389815 
0.94675163328 0.25728601821 -0.21173805466 -0.53573239793 -1 7 6.396210486 5.2876247587 3.9611146017 
2.6830369997 1.602362619 0.76477033605 0.15351655141 -0.29746647473 -1 7 6.5928522512 5.7452113088 
4.6026688443 3.3801512347 2.2488101044 1.3018850523 0.56390875705 -0.016742086161 -1 7 6.7201752194 
6.0750174182 5.1126628653 3.9841895374 2.8525146436 1.837082732 0.99628888674 0.29257769324 -1 7 
6.8031712133 6.3098093658 5.5074958176 4.4886292341 3.3917346754 2.3443008117 1.4278464012 0.61454429834 -1 
7 6.857525806 6.4752308618 5.8065211495 4.8970910867 3.8555899548 2.8049313448 1.8390412162 0.93357108467 
-1 7 6.893217055 6.5906849206 6.0287091717 5.2191397541 4.24183356 3.2080062785 2.215218919 
1.2362589563 -1 7 6.9166631291 6.6705136258 6.1909350532 5.4670005262 4.5541171289 3.5490240007 
2.5468102051 1.5122135621 -1 7 6.9319918662 6.7249892501 6.3069671269 5.6526890109 4.7985571945 
3.827053352 2.8273544836 1.7528878796 -1 7 6.9416071196 6.7603335496 6.3851559361 5.7826250056 
4.9758508965 4.0355504682 3.0442067015 1.9435712871 -1 7 6.9451854749 6.7737235 6.4153783508 
5.8338609223 5.0470903874 4.120796868 3.1342659141 2.0237666107 -1 7 1.564793182 0.0058969583225 
-0.54227294391 -0.77192657061 -0.88047516387 -0.93569256697 -0.96502478979 -0.98152304713 -1 7 3.5973842258 
1.4371580882 0.28827850986 -0.30868987694 -0.62336841009 -0.79277480935 -0.88567633412 -0.93902746594 -1 7 
4.8383077955 2.7492298964 1.2741829225 0.34366947774 -0.21686289507 -0.54789203128 -0.74168811491 -0.85872741864 -1 
7 5.606463949 3.8248372486 2.2650403544 1.1058170659 0.31461399377 -0.19931327923 -0.52298198826 -0.7307560205 
-1 7 6.0881367176 4.6570661063 3.1692831898 1.897934023 0.92685984012 0.23649072231 -0.2310811289 
-0.55119851511 -1 7 6.3936698773 5.2790504559 3.9439396503 2.6572980141 1.5706844452 0.73108855605 
0.121694749 -0.32324421322 -1 7 6.5893814001 5.7333033086 4.5783691826 3.3430424087 2.2022936278 
1.2515546738 0.51557660222 -0.056435529399 -1 7 6.7157275897 6.0595238049 5.0804838808 3.9341438972 
2.7886407367 1.7667574525 0.927637222 0.23540554383 -1 7 6.7977580986 6.2906905525 5.4671341884 
4.4247697055 3.3088111376 2.2514454194 1.335728005 0.53676669653 -1 7 6.8512065473 6.4526370683 
5.7581128248 4.819276168 3.7528976714 2.6880786143 1.7213082385 0.83283671331 -1 7 6.8860848385 
6.5649117615 5.9727580873 5.1279003108 4.1196221382 3.0668479004 2.0709098989 1.1112214725 -1 7 
6.9088305408 6.6419513975 6.1282147656 5.3634130229 4.4134970231 3.3843721611 2.3762069465 1.3626575576 -1 
7 6.9235812068 6.6940871375 6.2384483045 5.5382809552 4.6414267259 3.6408426993 2.6320920939 1.5799183544 
-1 7 6.9327597623 6.7276400903 6.3121210508 5.6596296338 4.80536333 3.8315652246 2.8282464588 
1.7506565429 -1 7 6.9361590355 6.7402903701 6.3404620999 5.7072532849 4.8709284903 3.9091875063 
2.9093469608 1.822154662 -1 7 1.564612647 0.0053654595295 -0.54319546992 -0.77313034957 -0.88177602334 
-0.93691838631 -0.96606169899 -0.98228865425 -1 7 3.5967943662 1.4354117524 0.28523123042 -0.31268518098 
-0.62770417196 -0.79687572664 -0.88915666482 -0.94160409079 -1 7 4.8369797525 2.7452377116 1.2671124999 
0.33427295038 -0.22718454079 -0.55776055249 -0.75014352645 -0.86503641479 -1 7 5.6040313216 3.817381706 
2.2515759853 1.0875935803 0.29426040752 -0.21906821625 -0.54013730464 -0.74369932175 -1 7 6.084264964 
4.6449526096 3.1469318952 1.8670531837 0.89170216442 0.20176105214 -0.26172563746 -0.57462829168 -1 7 
6.3881141425 5.2613123147 3.9104903188 2.610087037 1.5158353575 0.67587259851 0.072119811501 -0.36170470891 -1 
7 6.5820174941 5.7093408802 4.532224791 3.2765288177 2.1234318445 1.1706190312 0.44159321723 -0.114711432 
-1 7 6.7065542075 6.0291533602 5.0208443177 3.8464384664 2.6825831623 1.6558244023 0.82440223968 
0.15283723525 -1 7 6.786877396 6.2541119968 5.3940145877 4.3152230836 3.1738543449 2.1076924718 
1.1996075372 0.42625903564 -1 7 6.8387934261 6.4103484413 5.6722303572 4.6884182863 3.5888914456 
2.5103763213 1.5502442659 0.69196413492 -1 7 6.8723543488 6.5176024593 5.8753433737 4.9772240718 
3.9278142964 2.8557355626 1.8645410702 0.93898495647 -1 7 6.8940102378 6.5904018974 6.0208089029 
5.195092602 4.1962486934 3.1418557121 2.1357991861 1.1595306151 -1 7 6.9078946356 6.6391039814 
6.1227610083 5.3549634936 4.4019968248 3.3702520906 2.3605256592 1.3479498507 -1 7 6.9164391669 
6.6701052565 6.1901596205 5.464710302 4.5484059654 3.5383255752 2.5310451017 1.4945705269 -1 7 
6.9195827479 6.6817182694 6.2159243652 5.5075178265 4.6066148722 3.6063400209 2.6011618565 1.5556497586 -1 
7 1.5641606343 0.0041427985319 -0.54514469271 -0.77547699948 -0.88412879184 -0.9389869974 -0.96770385897 -0.9834375856 
-1 7 3.595332203 1.4314266968 0.27883493234 -0.32043088353 -0.63550950546 -0.80376861855 -0.8946495212 
-0.94545914481 -1 7 4.8337739774 2.7363269445 1.2525441933 0.31633957688 -0.24551831817 -0.5741572273 
-0.7633552204 -0.87439310866 -1 7 5.5983515178 3.8012092894 2.2245066517 1.0535447395 0.2587684873 
-0.25136645577 -0.56656618082 -0.76265649108 -1 7 6.0755389796 4.6194804761 3.1032081206 1.8107299436 
0.83168859336 0.14604329509 -0.30814871378 -0.60843265062 -1 7 6.3760208088 5.2251595649 3.8468650075 
2.5261197065 1.4243032025 0.58907310899 -0.0016166639166 -0.41628369906 -1 7 6.5665043788 5.6619427495 
4.4468206829 3.1611500628 1.9947948687 1.0460084779 0.33362064838 -0.19598938215 -1 7 6.687797929 
5.9707268089 4.9132783359 3.6979026217 2.5133841005 1.488500217 0.6765677107 0.039674964586 -1 7 