# vtk DataFile Version 5.1
vtk output
ASCII
DATASET STRUCTURED_GRID
DIMENSIONS 10 15 20
POINTS 3000 float
0 0 0 0 0 0 0 0 0 
0 0 0 0 0 0 0 0 0 
0 0 0 0 0 0 0 0 0 
0 0 0 0 0.0714286 0 0 0.0714286 0 
0 0.0714286 0 0 0.0714286 0 0 0.0714286 0 
0 0.0714286 0 0 0.0714286 0 0 0.0714286 0 
0 0.0714286 0 0 0.0714286 0 0 0.142857 0 
0 0.142857 0 0 0.142857 0 0 0.142857 0 
0 0.142857 0 0 0.142857 0 0 0.142857 0 
0 0.142857 0 0 0.142857 0 0 0.142857 0 
0 0.214286 0 0 0.214286 0 0 0.214286 0 
0 0.214286 0 0 0.214286 0 0 0.214286 0 
0 0.214286 0 0 0.214286 0 0 0.214286 0 
0 0.214286 0 0 0.285714 0 0 0.285714 0 
0 0.285714 0 0 0.285714 0 0 0.285714 0 
0 0.285714 0 0 0.285714 0 0 0.285714 0 
0 0.285714 0 0 0.285714 0 0 0.357143 0 
0 0.357143 0 0 0.357143 0 0 0.357143 0 
0 0.357143 0 0 0.357143 0 0 0.357143 0 
0 0.357143 0 0 0.357143 0 0 0.357143 0 
0 0.428571 0 0 0.428571 0 0 0.428571 0 
0 0.428571 0 0 0.428571 0 0 0.428571 0 
0 0.428571 0 0 0.428571 0 0 0.428571 0 
0 0.428571 0 0 0.5 0 0 0.5 0 
0 0.5 0 0 0.5 0 0 0.5 0 
0 0.5 0 0 0.5 0 0 0.5 0 
0 0.5 0 0 0.5 0 0 0.571429 0 
0 0.571429 0 0 0.571429 0 0 0.571429 0 
0 0.571429 0 0 0.571429 0 0 0.571429 0 
0 0.571429 0 0 0.571429 0 0 0.571429 0 
0 0.642857 0 0 0.642857 0 0 0.642857 0 
0 0.642857 0 0 0.642857 0 0 0.642857 0 
0 0.642857 0 0 0.642857 0 0 0.642857 0 
0 0.642857 0 0 0.714286 0 0 0.714286 0 
0 0.714286 0 0 0.714286 0 0 0.714286 0 
0 0.714286 0 0 0.714286 0 0 0.714286 0 
0 0.714286 0 0 0.714286 0 0 0.785714 0 
0 0.785714 0 0 0.785714 0 0 0.785714 0 
0 0.785714 0 0 0.785714 0 0 0.785714 0 
0 0.785714 0 0 0.785714 0 0 0.785714 0 
0 0.857143 0 0 0.857143 0 0 0.857143 0 
0 0.857143 0 0 0.857143 0 0 0.857143 0 
0 0.857143 0 0 0.857143 0 0 0.857143 0 
0 0.857143 0 0 0.928571 0 0 0.928571 0 
0 0.928571 0 0 0.928571 0 0 0.928571 0 
0 0.928571 0 0 0.928571 0 0 0.928571 0 
0 0.928571 0 0 0.928571 0 0 1 0 
0 1 0 0 1 0 0 1 0 
0 1 0 0 1 0 0 1 0 
0 1 0 0 1 0 0 1 0 
0 0 0.105263 0 0 0.105263 0 0 0.105263 
0 0 0.105263 0 0 0.105263 0 0 0.105263 
0 0 0.105263 0 0 0.105263 0 0 0.105263 
0 0 0.105263 0 0.0714286 0.105263 0 0.0714286 0.105263 
0 0.0714286 0.105263 0 0.0714286 0.105263 0 0.0714286 0.105263 
0 0.0714286 0.105263 0 0.0714286 0.105263 0 0.0714286 0.105263 
0 0.0714286 0.105263 0 0.0714286 0.105263 0 0.142857 0.105263 
0 0.142857 0.105263 0 0.142857 0.105263 0 0.142857 0.105263 
0 0.142857 0.105263 0 0.142857 0.105263 0 0.142857 0.105263 
0 0.142857 0.105263 0 0.142857 0.105263 0 0.142857 0.105263 
0 0.214286 0.105263 0 0.214286 0.105263 0 0.214286 0.105263 
0 0.214286 0.105263 0 0.214286 0.105263 0 0.214286 0.105263 
0 0.214286 0.105263 0 0.214286 0.105263 0 0.214286 0.105263 
0 0.214286 0.105263 0 0.285714 0.105263 0 0.285714 0.105263 
0 0.285714 0.105263 0 0.285714 0.105263 0 0.285714 0.105263 
0 0.285714 0.105263 0 0.285714 0.105263 0 0.285714 0.105263 
0 0.285714 0.105263 0 0.285714 0.105263 0 0.357143 0.105263 
0 0.357143 0.105263 0 0.357143 0.105263 0 0.357143 0.105263 
0 0.357143 0.105263 0 0.357143 0.105263 0 0.357143 0.105263 
0 0.357143 0.105263 0 0.357143 0.105263 0 0.357143 0.105263 
0 0.428571 0.105263 0 0.428571 0.105263 0 0.428571 0.105263 
0 0.428571 0.105263 0 0.428571 0.105263 0 0.428571 0.105263 
0 0.428571 0.105263 0 0.428571 0.105263 0 0.428571 0.105263 
0 0.428571 0.105263 0 0.5 0.105263 0 0.5 0.105263 
0 0.5 0.105263 0 0.5 0.105263 0 0.5 0.105263 
0 0.5 0.105263 0 0.5 0.105263 0 0.5 0.105263 
0 0.5 0.105263 0 0.5 0.105263 0 0.571429 0.105263 
0 0.571429 0.105263 0 0.571429 0.105263 0 0.571429 0.105263 
0 0.571429 0.105263 0 0.571429 0.105263 0 0.571429 0.105263 
0 0.571429 0.105263 0 0.571429 0.105263 0 0.571429 0.105263 
0 0.642857 0.105263 0 0.642857 0.105263 0 0.642857 0.105263 
0 0.642857 0.105263 0 0.642857 0.105263 0 0.642857 0.105263 
0 0.642857 0.105263 0 0.642857 0.105263 0 0.642857 0.105263 
0 0.642857 0.105263 0 0.714286 0.105263 0 0.714286 0.105263 
0 0.714286 0.105263 0 0.714286 0.105263 0 0.714286 0.105263 
0 0.714286 0.105263 0 0.714286 0.105263 0 0.714286 0.105263 
0 0.714286 0.105263 0 0.714286 0.105263 0 0.785714 0.105263 
0 0.785714 0.105263 0 0.785714 0.105263 0 0.785714 0.105263 
0 0.785714 0.105263 0 0.785714 0.105263 0 0.785714 0.105263 
0 0.785714 0.105263 0 0.785714 0.105263 0 0.785714 0.105263 
0 0.857143 0.105263 0 0.857143 0.105263 0 0.857143 0.105263 
0 0.857143 0.105263 0 0.857143 0.105263 0 0.857143 0.105263 
0 0.857143 0.105263 0 0.857143 0.105263 0 0.857143 0.105263 
0 0.857143 0.105263 0 0.928571 0.105263 0 0.928571 0.105263 
0 0.928571 0.105263 0 0.928571 0.105263 0 0.928571 0.105263 
0 0.928571 0.105263 0 0.928571 0.105263 0 0.928571 0.105263 
0 0.928571 0.105263 0 0.928571 0.105263 0 1 0.105263 
0 1 0.105263 0 1 0.105263 0 1 0.105263 
0 1 0.105263 0 1 0.105263 0 1 0.105263 
0 1 0.105263 0 1 0.105263 0 1 0.105263 
0 0 0.210526 0 0 0.210526 0 0 0.210526 
0 0 0.210526 0 0 0.210526 0 0 0.210526 
0 0 0.210526 0 0 0.210526 0 0 0.210526 
0 0 0.210526 0 0.0714286 0.210526 0 0.0714286 0.210526 
0 0.0714286 0.210526 0 0.0714286 0.210526 0 0.0714286 0.210526 
0 0.0714286 0.210526 0 0.0714286 0.210526 0 0.0714286 0.210526 
0 0.0714286 0.210526 0 0.0714286 0.210526 0 0.142857 0.210526 
0 0.142857 0.210526 0 0.142857 0.210526 0 0.142857 0.210526 
0 0.142857 0.210526 0 0.142857 0.210526 0 0.142857 0.210526 
0 0.142857 0.210526 0 0.142857 0.210526 0 0.142857 0.210526 
0 0.214286 0.210526 0 0.214286 0.210526 0 0.214286 0.210526 
0 0.214286 0.210526 0 0.214286 0.210526 0 0.214286 0.210526 
0 0.214286 0.210526 0 0.214286 0.210526 0 0.214286 0.210526 
0 0.214286 0.210526 0 0.285714 0.210526 0 0.285714 0.210526 
0 0.285714 0.210526 0 0.285714 0.210526 0 0.285714 0.210526 
0 0.285714 0.210526 0 0.285714 0.210526 0 0.285714 0.210526 
0 0.285714 0.210526 0 0.285714 0.210526 0 0.357143 0.210526 
0 0.357143 0.210526 0 0.357143 0.210526 0 0.357143 0.210526 
0 0.357143 0.210526 0 0.357143 0.210526 0 0.357143 0.210526 
0 0.357143 0.210526 0 0.357143 0.210526 0 0.357143 0.210526 
0 0.428571 0.210526 0 0.428571 0.210526 0 0.428571 0.210526 
0 0.428571 0.210526 0 0.428571 0.210526 0 0.428571 0.210526 
0 0.428571 0.210526 0 0.428571 0.210526 0 0.428571 0.210526 
0 0.428571 0.210526 0 0.5 0.210526 0 0.5 0.210526 
0 0.5 0.210526 0 0.5 0.210526 0 0.5 0.210526 
0 0.5 0.210526 0 0.5 0.210526 0 0.5 0.210526 
0 0.5 0.210526 0 0.5 0.210526 0 0.571429 0.210526 
0 0.571429 0.210526 0 0.571429 0.210526 0 0.571429 0.210526 
0 0.571429 0.210526 0 0.571429 0.210526 0 0.571429 0.210526 
0 0.571429 0.210526 0 0.571429 0.210526 0 0.571429 0.210526 
0 0.642857 0.210526 0 0.642857 0.210526 0 0.642857 0.210526 
0 0.642857 0.210526 0 0.642857 0.210526 0 0.642857 0.210526 
0 0.642857 0.210526 0 0.642857 0.210526 0 0.642857 0.210526 
0 0.642857 0.210526 0 0.714286 0.210526 0 0.714286 0.210526 
0 0.714286 0.210526 0 0.714286 0.210526 0 0.714286 0.210526 
0 0.714286 0.210526 0 0.714286 0.210526 0 0.714286 0.210526 
0 0.714286 0.210526 0 0.714286 0.210526 0 0.785714 0.210526 
0 0.785714 0.210526 0 0.785714 0.210526 0 0.785714 0.210526 
0 0.785714 0.210526 0 0.785714 0.210526 0 0.785714 0.210526 
0 0.785714 0.210526 0 0.785714 0.210526 0 0.785714 0.210526 
0 0.857143 0.210526 0 0.857143 0.210526 0 0.857143 0.210526 
0 0.857143 0.210526 0 0.857143 0.210526 0 0.857143 0.210526 
0 0.857143 0.210526 0 0.857143 0.210526 0 0.857143 0.210526 
0 0.857143 0.210526 0 0.928571 0.210526 0 0.928571 0.210526 
0 0.928571 0.210526 0 0.928571 0.210526 0 0.928571 0.210526 
0 0.928571 0.210526 0 0.928571 0.210526 0 0.928571 0.210526 
0 0.928571 0.210526 0 0.928571 0.210526 0 1 0.210526 
0 1 0.210526 0 1 0.210526 0 1 0.210526 
0 1 0.210526 0 1 0.210526 0 1 0.210526 
0 1 0.210526 0 1 0.210526 0 1 0.210526 
0 0 0.315789 0 0 0.315789 0 0 0.315789 
0 0 0.315789 0 0 0.315789 0 0 0.315789 
0 0 0.315789 0 0 0.315789 0 0 0.315789 
0 0 0.315789 0 0.0714286 0.315789 0 0.0714286 0.315789 
0 0.0714286 0.315789 0 0.0714286 0.315789 0 0.0714286 0.315789 
0 0.0714286 0.315789 0 0.0714286 0.315789 0 0.0714286 0.315789 
0 0.0714286 0.315789 0 0.0714286 0.315789 0 0.142857 0.315789 
0 0.142857 0.315789 0 0.142857 0.315789 0 0.142857 0.315789 
0 0.142857 0.315789 0 0.142857 0.315789 0 0.142857 0.315789 
0 0.142857 0.315789 0 0.142857 0.315789 0 0.142857 0.315789 
0 0.214286 0.315789 0 0.214286 0.315789 0 0.214286 0.315789 
0 0.214286 0.315789 0 0.214286 0.315789 0 0.214286 0.315789 
0 0.214286 0.315789 0 0.214286 0.315789 0 0.214286 0.315789 
0 0.214286 0.315789 0 0.285714 0.315789 0 0.285714 0.315789 
0 0.285714 0.315789 0 0.285714 0.315789 0 0.285714 0.315789 
0 0.285714 0.315789 0 0.285714 0.315789 0 0.285714 0.315789 
0 0.285714 0.315789 0 0.285714 0.315789 0 0.357143 0.315789 
0 0.357143 0.315789 0 0.357143 0.315789 0 0.357143 0.315789 
0 0.357143 0.315789 0 0.357143 0.315789 0 0.357143 0.315789 
0 0.357143 0.315789 0 0.357143 0.315789 0 0.357143 0.315789 
0 0.428571 0.315789 0 0.428571 0.315789 0 0.428571 0.315789 
0 0.428571 0.315789 0 0.428571 0.315789 0 0.428571 0.315789 
0 0.428571 0.315789 0 0.428571 0.315789 0 0.428571 0.315789 
0 0.428571 0.315789 0 0.5 0.315789 0 0.5 0.315789 
0 0.5 0.315789 0 0.5 0.315789 0 0.5 0.315789 
0 0.5 0.315789 0 0.5 0.315789 0 0.5 0.315789 
0 0.5 0.315789 0 0.5 0.315789 0 0.571429 0.315789 
0 0.571429 0.315789 0 0.571429 0.315789 0 0.571429 0.315789 
0 0.571429 0.315789 0 0.571429 0.315789 0 0.571429 0.315789 
0 0.571429 0.315789 0 0.571429 0.315789 0 0.571429 0.315789 
0 0.642857 0.315789 0 0.642857 0.315789 0 0.642857 0.315789 
0 0.642857 0.315789 0 0.642857 0.315789 0 0.642857 0.315789 
0 0.642857 0.315789 0 0.642857 0.315789 0 0.642857 0.315789 
0 0.642857 0.315789 0 0.714286 0.315789 0 0.714286 0.315789 
0 0.714286 0.315789 0 0.714286 0.315789 0 0.714286 0.315789 
0 0.714286 0.315789 0 0.714286 0.315789 0 0.714286 0.315789 
0 0.714286 0.315789 0 0.714286 0.315789 0 0.785714 0.315789 
0 0.785714 0.315789 0 0.785714 0.315789 0 0.785714 0.315789 
0 0.785714 0.315789 0 0.785714 0.315789 0 0.785714 0.315789 
0 0.785714 0.315789 0 0.785714 0.315789 0 0.785714 0.315789 
[...]
POINT_DATA 3000
FIELD FieldData 1
unknown 1 3000 double
7 7 7 7 7 7 7 7 7 
7 7 7 7 7 7 7 7 7 
7 7 7 7 7 7 7 7 7 
7 7 7 7 7 7 7 7 7 
7 7 7 7 7 7 7 7 7 
7 7 7 7 7 7 7 7 7 
7 7 7 7 7 7 7 7 7 
7 7 7 7 7 7 7 7 7 
7 7 7 7 7 7 7 7 7 
7 7 7 7 7 7 7 7 7 
7 7 7 7 7 7 7 7 7 
7 7 7 7 7 7 7 7 7 
7 7 7 7 7 7 7 7 7 
7 7 7 7 7 7 7 7 7 
7 7 7 7 7 7 7 7 7 
7 7 7 7 7 7 7 7 7 
7 7 7 7 7 7 7 -1 -1 
-1 -1 -1 -1 -1 -1 -1 7 -1 
-1 -1 -1 -1 -1 -1 -1 -1 7 
-1 -1 -1 -1 -1 -1 -1 -1 -1 
7 -1 -1 -1 -1 -1 -1 -1 -1 
-1 7 -1 -1 -1 -1 -1 -1 -1 
-1 -1 7 -1 -1 -1 -1 -1 -1 
-1 -1 -1 7 -1 -1 -1 -1 -1 
-1 -1 -1 -1 7 -1 -1 -1 -1 
-1 -1 -1 -1 -1 7 -1 -1 -1 
-1 -1 -1 -1 -1 -1 7 -1 -1 
-1 -1 -1 -1 -1 -1 -1 7 -1 
-1 -1 -1 -1 -1 -1 -1 -1 7 
-1 -1 -1 -1 -1 -1 -1 -1 -1 
7 -1 -1 -1 -1 -1 -1 -1 -1 
-1 7 -1 -1 -1 -1 -1 -1 -1 
-1 -1 7 -1 -1 -1 -1 -1 -1 
-1 -1 -1 7 -1 -1 -1 -1 -1 
-1 -1 -1 -1 7 -1 -1 -1 -1 
-1 -1 -1 -1 -1 7 -1 -1 -1 
-1 -1 -1 -1 -1 -1 7 -1 -1 
-1 -1 -1 -1 -1 -1 -1 7 -1 
-1 -1 -1 -1 -1 -1 -1 -1 7 
-1 -1 -1 -1 -1 -1 -1 -1 -1 
7 -1 -1 -1 -1 -1 -1 -1 -1 
-1 7 -1 -1 -1 -1 -1 -1 -1 
-1 -1 7 -1 -1 -1 -1 -1 -1 
-1 -1 -1 7 -1 -1 -1 -1 -1 
-1 -1 -1 -1 7 -1 -1 -1 -1 
-1 -1 -1 -1 -1 7 -1 -1 -1 
-1 -1 -1 -1 -1 -1 7 -1 -1 
-1 -1 -1 -1 -1 -1 -1 7 -1 
-1 -1 -1 -1 -1 -1 -1 -1 7 
-1 -1 -1 -1 -1 -1 -1 -1 -1 
7 -1 -1 -1 -1 -1 -1 -1 -1 
-1 7 -1 -1 -1 -1 -1 -1 -1 
-1 -1 7 -1 -1 -1 -1 -1 -1 
-1 -1 -1 7 -1 -1 -1 -1 -1 
-1 -1 -1 -1 7 -1 -1 -1 -1 
-1 -1 -1 -1 -1 7 -1 -1 -1 
-1 -1 -1 -1 -1 -1 7 -1 -1 
-1 -1 -1 -1 -1 -1 -1 7 -1 
-1 -1 -1 -1 -1 -1 -1 -1 7 
-1 -1 -1 -1 -1 -1 -1 -1 -1 
7 -1 -1 -1 -1 -1 -1 -1 -1 
-1 7 -1 -1 -1 -1 -1 -1 -1 
-1 -1 7 -1 -1 -1 -1 -1 -1 
-1 -1 -1 7 -1 -1 -1 -1 -1 
-1 -1 -1 -1 7 -1 -1 -1 -1 
-1 -1 -1 -1 -1 7 -1 -1 -1 
-1 -1 -1 -1 -1 -1 7 -1 -1 
-1 -1 -1 -1 -1 -1 -1 7 -1 
-1 -1 -1 -1 -1 -1 -1 -1 7 
-1 -1 -1 -1 -1 -1 -1 -1 -1 
7 -1 -1 -1 -1 -1 -1 -1 -1 
-1 7 -1 -1 -1 -1 -1 -1 -1 
-1 -1 7 -1 -1 -1 -1 -1 -1 
-1 -1 -1 7 -1 -1 -1 -1 -1 
-1 -1 -1 -1 7 -1 -1 -1 -1 
-1 -1 -1 -1 -1 7 -1 -1 -1 
-1 -1 -1 -1 -1 -1 7 -1 -1 
-1 -1 -1 -1 -1 -1 -1 7 -1 
-1 -1 -1 -1 -1 -1 -1 -1 7 
-1 -1 -1 -1 -1 -1 -1 -1 -1 
7 -1 -1 -1 -1 -1 -1 -1 -1 
-1 7 -1 -1 -1 -1 -1 -1 -1 
-1 -1 7 -1 -1 -1 -1 -1 -1 
-1 -1 -1 7 -1 -1 -1 -1 -1 
-1 -1 -1 -1 7 -1 -1 -1 -1 
-1 -1 -1 -1 -1 7 -1 -1 -1 
-1 -1 -1 -1 -1 -1 7 -1 -1 
-1 -1 -1 -1 -1 -1 -1 7 -1 
-1 -1 -1 -1 -1 -1 -1 -1 7 
-1 -1 -1 -1 -1 -1 -1 -1 -1 
7 -1 -1 -1 -1 -1 -1 -1 -1 
-1 7 -1 -1 -1 -1 -1 -1 -1 
-1 -1 7 -1 -1 -1 -1 -1 -1 
-1 -1 -1 7 -1 -1 -1 -1 -1 
-1 -1 -1 -1 7 -1 -1 -1 -1 
-1 -1 -1 -1 -1 7 -1 -1 -1 
-1 -1 -1 -1 -1 -1 7 -1 -1 
-1 -1 -1 -1 -1 -1 -1 7 -1 
-1 -1 -1 -1 -1 -1 -1 -1 7 
-1 -1 -1 -1 -1 -1 -1 -1 -1 
7 -1 -1 -1 -1 -1 -1 -1 -1 
-1 7 -1 -1 -1 -1 -1 -1 -1 
-1 -1 7 -1 -1 -1 -1 -1 -1 
-1 -1 -1 7 -1 -1 -1 -1 -1 
-1 -1 -1 -1 7 -1 -1 -1 -1 
-1 -1 -1 -1 -1 7 -1 -1 -1 
-1 -1 -1 -1 -1 -1 7 -1 -1 
-1 -1 -1 -1 -1 -1 -1 7 -1 
-1 -1 -1 -1 -1 -1 -1 -1 7 
-1 -1 -1 -1 -1 -1 -1 -1 -1 
7 -1 -1 -1 -1 -1 -1 -1 -1 
-1 7 -1 -1 -1 -1 -1 -1 -1 
-1 -1 7 -1 -1 -1 -1 -1 -1 
-1 -1 -1 7 -1 -1 -1 -1 -1 
-1 -1 -1 -1 7 -1 -1 -1 -1 
-1 -1 -1 -1 -1 7 -1 -1 -1 
-1 -1 -1 -1 -1 -1 7 -1 -1 
-1 -1 -1 -1 -1 -1 -1 7 -1 
-1 -1 -1 -1 -1 -1 -1 -1 7 
-1 -1 -1 -1 -1 -1 -1 -1 -1 
7 -1 -1 -1 -1 -1 -1 -1 -1 
-1 7 -1 -1 -1 -1 -1 -1 -1 
-1 -1 7 -1 -1 -1 -1 -1 -1 
-1 -1 -1 7 -1 -1 -1 -1 -1 
-1 -1 -1 -1 7 -1 -1 -1 -1 
-1 -1 -1 -1 -1 7 -1 -1 -1 
-1 -1 -1 -1 -1 -1 7 -1 -1 
-1 -1 -1 -1 -1 -1 -1 7 -1 
-1 -1 -1 -1 -1 -1 -1 -1 7 
-1 -1 -1 -1 -1 -1 -1 -1 -1 
7 -1 -1 -1 -1 -1 -1 -1 -1 
-1 7 -1 -1 -1 -1 -1 -1 -1 
-1 -1 7 -1 -1 -1 -1 -1 -1 
-1 -1 -1 7 -1 -1 -1 -1 -1 
-1 -1 -1 -1 7 -1 -1 -1 -1 
-1 -1 -1 -1 -1 7 -1 -1 -1 
-1 -1 -1 -1 -1 -1 7 -1 -1 
-1 -1 -1 -1 -1 -1 -1 7 -1 
-1 -1 -1 -1 -1 -1 -1 -1 7 
-1 -1 -1 -1 -1 -1 -1 -1 -1 
7 -1 -1 -1 -1 -1 -1 -1 -1 
-1 7 -1 -1 -1 -1 -1 -1 -1 
-1 -1 7 -1 -1 -1 -1 -1 -1 
-1 -1 -1 7 -1 -1 -1 -1 -1 
-1 -1 -1 -1 7 -1 -1 -1 -1 
-1 -1 -1 -1 -1 7 -1 -1 -1 
-1 -1 -1 -1 -1 -1 7 -1 -1 
-1 -1 -1 -1 -1 -1 -1 7 -1 
-1 -1 -1 -1 -1 -1 -1 -1 7 
-1 -1 -1 -1 -1 -1 -1 -1 -1 
7 -1 -1 -1 -1 -1 -1 -1 -1 
-1 7 -1 -1 -1 -1 -1 -1 -1 
-1 -1 7 -1 -1 -1 -1 -1 -1 
-1 -1 -1 7 -1 -1 -1 -1 -1 
-1 -1 -1 -1 7 -1 -1 -1 -1 
-1 -1 -1 -1 -1 7 -1 -1 -1 
-1 -1 -1 -1 -1 -1 7 -1 -1 
-1 -1 -1 -1 -1 -1 -1 7 -1 
-1 -1 -1 -1 -1 -1 -1 -1 7 
-1 -1 -1 -1 -1 -1 -1 -1 -1 
7 -1 -1 -1 -1 -1 -1 -1 -1 
-1 7 -1 -1 -1 -1 -1 -1 -1 
-1 -1 7 -1 -1 -1 -1 -1 -1 
-1 -1 -1 7 -1 -1 -1 -1 -1 
-1 -1 -1 -1 7 -1 -1 -1 -1 
-1 -1 -1 -1 -1 7 -1 -1 -1 
-1 -1 -1 -1 -1 -1 7 -1 -1 
-1 -1 -1 -1 -1 -1 -1 7 -1 
-1 -1 -1 -1 -1 -1 -1 -1 7 
-1 -1 -1 -1 -1 -1 -1 -1 -1 
7 -1 -1 -1 -1 -1 -1 -1 -1 
-1 7 -1 -1 -1 -1 -1 -1 -1 
-1 -1 7 -1 -1 -1 -1 -1 -1 
-1 -1 -1 7 -1 -1 -1 -1 -1 
-1 -1 -1 -1 7 -1 -1 -1 -1 
-1 -1 -1 -1 -1 7 -1 -1 -1 
-1 -1 -1 -1 -1 -1 7 -1 -1 
-1 -1 -1 -1 -1 -1 -1 7 -1 
-1 -1 -1 -1 -1 -1 -1 -1 7 
-1 -1 -1 -1 -1 -1 -1 -1 -1 
7 -1 -1 -1 -1 -1 -1 -1 -1 
-1 7 -1 -1 -1 -1 -1 -1 -1 
-1 -1 7 -1 -1 -1 -1 -1 -1 
-1 -1 -1 7 -1 -1 -1 -1 -1 
-1 -1 -1 -1 7 -1 -1 -1 -1 
-1 -1 -1 -1 -1 7 -1 -1 -1 
-1 -1 -1 -1 -1 -1 7 -1 -1 
-1 -1 -1 -1 -1 -1 -1 7 -1 
-1 -1 -1 -1 -1 -1 -1 -1 7 
-1 -1 -1 -1 -1 -1 -1 -1 -1 
7 -1 -1 -1 -1 -1 -1 -1 -1 
-1 7 -1 -1 -1 -1 -1 -1 -1 
-1 -1 7 -1 -1 -1 -1 -1 -1 
-1 -1 -1 7 -1 -1 -1 -1 -1 
-1 -1 -1 -1 7 -1 -1 -1 -1 
-1 -1 -1 -1 -1 7 -1 -1 -1 
-1 -1 -1 -1 -1 -1 7 -1 -1 
-1 -1 -1 -1 -1 -1 -1 7 -1 
-1 -1 -1 -1 -1 -1 -1 -1 7 
-1 -1 -1 -1 -1 -1 -1 -1 -1 
7 -1 -1 -1 -1 -1 -1 -1 -1 
-1 7 -1 -1 -1 -1 -1 -1 -1 
-1 -1 7 -1 -1 -1 -1 -1 -1 
-1 -1 -1 7 -1 -1 -1 -1 -1 
-1 -1 -1 -1 7 -1 -1 -1 -1 
-1 -1 -1 -1 -1 7 -1 -1 -1 
-1 -1 -1 -1 -1 -1 7 -1 -1 
-1 -1 -1 -1 -1 -1 -1 7 -1 
-1 -1 -1 -1 -1 -1 -1 -1 7 
-1 -1 -1 -1 -1 -1 -1 -1 -1 
7 -1 -1 -1 -1 -1 -1 -1 -1 
-1 7 -1 -1 -1 -1 -1 -1 -1 
-1 -1 7 -1 -1 -1 -1 -1 -1 
-1 -1 -1 7 -1 -1 -1 -1 -1 
-1 -1 -1 -1 7 -1 -1 -1 -1 
-1 -1 -1 -1 -1 7 -1 -1 -1 
-1 -1 -1 -1 -1 -1 7 -1 -1 
-1 -1 -1 -1 -1 -1 -1 7 -1 
-1 -1 -1 -1 -1 -1 -1 -1 7 
-1 -1 -1 -1 -1 -1 -1 -1 -1 
7 -1 -1 -1 -1 -1 -1 -1 -1 
-1 7 -1 -1 -1 -1 -1 -1 -1 
-1 -1 7 -1 -1 -1 -1 -1 -1 
-1 -1 -1 7 -1 -1 -1 -1 -1 
-1 -1 -1 -1 7 -1 -1 -1 -1 
-1 -1 -1 -1 -1 7 -1 -1 -1 
-1 -1 -1 -1 -1 -1 7 -1 -1 
-1 -1 -1 -1 -1 -1 -1 7 -1 
-1 -1 -1 -1 -1 -1 -1 -1 7 
-1 -1 -1 -1 -1 -1 -1 -1 -1 
7 -1 -1 -1 -1 -1 -1 -1 -1 
-1 7 -1 -1 -1 -1 -1 -1 -1 
-1 -1 7 -1 -1 -1 -1 -1 -1 
-1 -1 -1 7 -1 -1 -1 -1 -1 
-1 -1 -1 -1 7 -1 -1 -1 -1 
-1 -1 -1 -1 -1 7 -1 -1 -1 
-1 -1 -1 -1 -1 -1 7 -1 -1 
-1 -1 -1 -1 -1 -1 -1 7 -1 
-1 -1 -1 -1 -1 -1 -1 -1 7 
-1 -1 -1 -1 -1 -1 -1 -1 -1 
7 -1 -1 -1 -1 -1 -1 -1 -1 
-1 7 -1 -1 -1 -1 -1 -1 -1 
-1 -1 7 -1 -1 -1 -1 -1 -1 
-1 -1 -1 7 -1 -1 -1 -1 -1 
-1 -1 -1 -1 7 -1 -1 -1 -1 
-1 -1 -1 -1 -1 7 -1 -1 -1 
-1 -1 -1 -1 -1 -1 7 -1 -1 
-1 -1 -1 -1 -1 -1 -1 7 -1 
-1 -1 -1 -1 -1 -1 -1 -1 7 
-1 -1 -1 -1 -1 -1 -1 -1 -1 
7 -1 -1 -1 -1 -1 -1 -1 -1 
-1 7 -1 -1 -1 -1 -1 -1 -1 
-1 -1 7 -1 -1 -1 -1 -1 -1 
-1 -1 -1 7 -1 -1 -1 -1 -1 
-1 -1 -1 -1 7 -1 -1 -1 -1 
-1 -1 -1 -1 -1 7 -1 -1 -1 
-1 -1 -1 -1 -1 -1 7 -1 -1 
-1 -1 -1 -1 -1 -1 -1 7 -1 
-1 -1 -1 -1 -1 -1 -1 -1 7 
-1 -1 -1 -1 -1 -1 -1 -1 -1 
7 -1 -1 -1 -1 -1 -1 -1 -1 
-1 7 -1 -1 -1 -1 -1 -1 -1 
-1 -1 7 -1 -1 -1 -1 -1 -1 
-1 -1 -1 7 -1 -1 -1 -1 -1 
-1 -1 -1 -1 7 -1 -1 -1 -1 
-1 -1 -1 -1 -1 7 -1 -1 -1 
-1 -1 -1 -1 -1 -1 7 -1 -1 
-1 -1 -1 -1 -1 -1 -1 7 -1 
-1 -1 -1 -1 -1 -1 -1 -1 7 
-1 -1 -1 -1 -1 -1 -1 -1 -1 
7 -1 -1 -1 -1 -1 -1 -1 -1 
-1 7 -1 -1 -1 -1 -1 -1 -1 
-1 -1 7 -1 -1 -1 -1 -1 -1 
-1 -1 -1 7 -1 -1 -1 -1 -1 
-1 -1 -1 -1 7 -1 -1 -1 -1 
-1 -1 -1 -1 -1 7 -1 -1 -1 
-1 -1 -1 -1 -1 -1 7 -1 -1 
-1 -1 -1 -1 -1 -1 -1 7 -1 
-1 -1 -1 -1 -1 -1 -1 -1 7 
-1 -1 -1 -1 -1 -1 -1 -1 -1 
7 -1 -1 -1 -1 -1 -1 -1 -1 
-1 7 -1 -1 -1 -1 -1 -1 -1 
-1 -1 7 -1 -1 -1 -1 -1 -1 
-1 -1 -1 7 -1 -1 -1 -1 -1 
-1 -1 -1 -1 7 -1 -1 -1 -1 
-1 -1 -1 -1 -1 7 -1 -1 -1 
-1 -1 -1 -1 -1 -1 7 -1 -1 
-1 -1 -1 -1 -1 -1 -1 7 -1 
-1 -1 -1 -1 -1 -1 -1 -1 7 
-1 -1 -1 -1 -1 -1 -1 -1 -1 
7 -1 -1 -1 -1 -1 -1 -1 -1 
-1 7 -1 -1 -1 -1 -1 -1 -1 
-1 -1 7 -1 -1 -1 -1 -1 -1 
-1 -1 -1 7 -1 -1 -1 -1 -1 
-1 -1 -1 -1 7 -1 -1 -1 -1 
-1 -1 -1 -1 -1 7 -1 -1 -1 
-1 -1 -1 -1 -1 -1 7 -1 -1 
-1 -1 -1 -1 -1 -1 -1 7 -1 
-1 -1 -1 -1 -1 -1 -1 -1 7 
-1 -1 -1 -1 -1 -1 -1 -1 -1 
7 -1 -1 -1 -1 -1 -1 -1 -1 
-1 7 -1 -1 -1 -1 -1 -1 -1 
-1 -1 7 -1 -1 -1 -1 -1 -1 
-1 -1 -1 7 -1 -1 -1 -1 -1 
-1 -1 -1 -1 7 -1 -1 -1 -1 
-1 -1 -1 -1 -1 7 -1 -1 -1 
-1 -1 -1 -1 -1 -1 7 -1 -1 
-1 -1 -1 -1 -1 -1 -1 7 -1 
-1 -1 -1 -1 -1 -1 -1 -1 7 
-1 -1 -1 -1 -1 -1 -1 -1 -1 
7 -1 -1 -1 -1 -1 -1 -1 -1 
-1 7 -1 -1 -1 -1 -1 -1 -1 
-1 -1 7 -1 -1 -1 -1 -1 -1 
-1 -1 -1 7 -1 -1 -1 -1 -1 
-1 -1 -1 -1 7 -1 -1 -1 -1 
-1 -1 -1 -1 -1 7 -1 -1 -1 
-1 -1 -1 -1 -1 -1 7 -1 -1 
-1 -1 -1 -1 -1 -1 -1 7 -1 
-1 -1 -1 -1 -1 -1 -1 -1 7 
-1 -1 -1 -1 -1 -1 -1 -1 -1 
7 -1 -1 -1 -1 -1 -1 -1 -1 
-1 7 -1 -1 -1 -1 -1 -1 -1 
-1 -1 7 -1 -1 -1 -1 -1 -1 
-1 -1 -1 7 -1 -1 -1 -1 -1 
-1 -1 -1 -1 7 -1 -1 -1 -1 
-1 -1 -1 -1 -1 7 -1 -1 -1 
-1 -1 -1 -1 -1 -1 7 -1 -1 
-1 -1 -1 -1 -1 -1 -1 7 -1 
-1 -1 -1 -1 -1 -1 -1 -1 7 
-1 -1 -1 -1 -1 -1 -1 -1 -1 
7 -1 -1 -1 -1 -1 -1 -1 -1 
-1 7 -1 -1 -1 -1 -1 -1 -1 
-1 -1 7 -1 -1 -1 -1 -1 -1 
-1 -1 -1 
