# vtk DataFile Version 5.1
vtk output
ASCII
DATASET STRUCTURED_GRID
DIMENSIONS 10 15 20
POINTS 3000 float
0 0 0 0 0 0 0 0 0 
0 0 0 0 0 0 0 0 0 
0 0 0 0 0 0 0 0 0 
0 0 0 0 0.0714286 0 0 0.0714286 0 
0 0.0714286 0 0 0.0714286 0 0 0.0714286 0 
0 0.0714286 0 0 0.0714286 0 0 0.0714286 0 
0 0.0714286 0 0 0.0714286 0 0 0.142857 0 
0 0.142857 0 0 0.142857 0 0 0.142857 0 
0 0.142857 0 0 0.142857 0 0 0.142857 0 
0 0.142857 0 0 0.142857 0 0 0.142857 0 
0 0.214286 0 0 0.214286 0 0 0.214286 0 
0 0.214286 0 0 0.214286 0 0 0.214286 0 
0 0.214286 0 0 0.214286 0 0 0.214286 0 
0 0.214286 0 0 0.285714 0 0 0.285714 0 
0 0.285714 0 0 0.285714 0 0 0.285714 0 
0 0.285714 0 0 0.285714 0 0 0.285714 0 
0 0.285714 0 0 0.285714 0 0 0.357143 0 
0 0.357143 0 0 0.357143 0 0 0.357143 0 
0 0.357143 0 0 0.357143 0 0 0.357143 0 
0 0.357143 0 0 0.357143 0 0 0.357143 0 
0 0.428571 0 0 0.428571 0 0 0.428571 0 
0 0.428571 0 0 0.428571 0 0 0.428571 0 
0 0.428571 0 0 0.428571 0 0 0.428571 0 
0 0.428571 0 0 0.5 0 0 0.5 0 
0 0.5 0 0 0.5 0 0 0.5 0 
0 0.5 0 0 0.5 0 0 0.5 0 
0 0.5 0 0 0.5 0 0 0.571429 0 
0 0.571429 0 0 0.571429 0 0 0.571429 0 
0 0.571429 0 0 0.571429 0 0 0.571429 0 
0 0.571429 0 0 0.571429 0 0 0.571429 0 
0 0.642857 0 0 0.642857 0 0 0.642857 0 
0 0.642857 0 0 0.642857 0 0 0.642857 0 
0 0.642857 0 0 0.642857 0 0 0.642857 0 
0 0.642857 0 0 0.714286 0 0 0.714286 0 
0 0.714286 0 0 0.714286 0 0 0.714286 0 
0 0.714286 0 0 0.714286 0 0 0.714286 0 
0 0.714286 0 0 0.714286 0 0 0.785714 0 
0 0.785714 0 0 0.785714 0 0 0.785714 0 
0 0.785714 0 0 0.785714 0 0 0.785714 0 
0 0.785714 0 0 0.785714 0 0 0.785714 0 
0 0.857143 0 0 0.857143 0 0 0.857143 0 
0 0.857143 0 0 0.857143 0 0 0.857143 0 
0 0.857143 0 0 0.857143 0 0 0.857143 0 
0 0.857143 0 0 0.928571 0 0 0.928571 0 
0 0.928571 0 0 0.928571 0 0 0.928571 0 
0 0.928571 0 0 0.928571 0 0 0.928571 0 
0 0.928571 0 0 0.928571 0 0 1 0 
0 1 0 0 1 0 0 1 0 
0 1 0 0 1 0 0 1 0 
0 1 0 0 1 0 0 1 0 
0 0 0.105263 0 0 0.105263 0 0 0.105263 
0 0 0.105263 0 0 0.105263 0 0 0.105263 
0 0 0.105263 0 0 0.105263 0 0 0.105263 
0 0 0.105263 0 0.0714286 0.105263 0 0.0714286 0.105263 
0 0.0714286 0.105263 0 0.0714286 0.105263 0 0.0714286 0.105263 
0 0.0714286 0.105263 0 0.0714286 0.105263 0 0.0714286 0.105263 
0 0.0714286 0.105263 0 0.0714286 0.105263 0 0.142857 0.105263 
0 0.142857 0.105263 0 0.142857 0.105263 0 0.142857 0.105263 
0 0.142857 0.105263 0 0.142857 0.105263 0 0.142857 0.105263 
0 0.142857 0.105263 0 0.142857 0.105263 0 0.142857 0.105263 
0 0.214286 0.105263 0 0.214286 0.105263 0 0.214286 0.105263 
0 0.214286 0.105263 0 0.214286 0.105263 0 0.214286 0.105263 
0 0.214286 0.105263 0 0.214286 0.105263 0 0.214286 0.105263 
0 0.214286 0.105263 0 0.285714 0.105263 0 0.285714 0.105263 
0 0.285714 0.105263 0 0.285714 0.105263 0 0.285714 0.105263 
0 0.285714 0.105263 0 0.285714 0.105263 0 0.285714 0.105263 
0 0.285714 0.105263 0 0.285714 0.105263 0 0.357143 0.105263 
0 0.357143 0.105263 0 0.357143 0.105263 0 0.357143 0.105263 
0 0.357143 0.105263 0 0.357143 0.105263 0 0.357143 0.105263 
0 0.357143 0.105263 0 0.357143 0.105263 0 0.357143 0.105263 
0 0.428571 0.105263 0 0.428571 0.105263 0 0.428571 0.105263 
0 0.428571 0.105263 0 0.428571 0.105263 0 0.428571 0.105263 
0 0.428571 0.105263 0 0.428571 0.105263 0 0.428571 0.105263 
0 0.428571 0.105263 0 0.5 0.105263 0 0.5 0.105263 
0 0.5 0.105263 0 0.5 0.105263 0 0.5 0.105263 
0 0.5 0.105263 0 0.5 0.105263 0 0.5 0.105263 
0 0.5 0.105263 0 0.5 0.105263 0 0.571429 0.105263 
0 0.571429 0.105263 0 0.571429 0.105263 0 0.571429 0.105263 
0 0.571429 0.105263 0 0.571429 0.105263 0 0.571429 0.105263 
0 0.571429 0.105263 0 0.571429 0.105263 0 0.571429 0.105263 
0 0.642857 0.105263 0 0.642857 0.105263 0 0.642857 0.105263 
0 0.642857 0.105263 0 0.642857 0.105263 0 0.642857 0.105263 
0 0.642857 0.105263 0 0.642857 0.105263 0 0.642857 0.105263 
0 0.642857 0.105263 0 0.714286 0.105263 0 0.714286 0.105263 
0 0.714286 0.105263 0 0.714286 0.105263 0 0.714286 0.105263 
0 0.714286 0.105263 0 0.714286 0.105263 0 0.714286 0.105263 
0 0.714286 0.105263 0 0.714286 0.105263 0 0.785714 0.105263 
0 0.785714 0.105263 0 0.785714 0.105263 0 0.785714 0.105263 
0 0.785714 0.105263 0 0.785714 0.105263 0 0.785714 0.105263 
0 0.785714 0.105263 0 0.785714 0.105263 0 0.785714 0.105263 
0 0.857143 0.105263 0 0.857143 0.105263 0 0.857143 0.105263 
0 0.857143 0.105263 0 0.857143 0.105263 0 0.857143 0.105263 
0 0.857143 0.105263 0 0.857143 0.105263 0 0.857143 0.105263 
0 0.857143 0.105263 0 0.928571 0.105263 0 0.928571 0.105263 
0 0.928571 0.105263 0 0.928571 0.105263 0 0.928571 0.105263 
0 0.928571 0.105263 0 0.928571 0.105263 0 0.928571 0.105263 
0 0.928571 0.105263 0 0.928571 0.105263 0 1 0.105263 
0 1 0.105263 0 1 0.105263 0 1 0.105263 
0 1 0.105263 0 1 0.105263 0 1 0.105263 
0 1 0.105263 0 1 0.105263 0 1 0.105263 
0 0 0.210526 0 0 0.210526 0 0 0.210526 
0 0 0.210526 0 0 0.210526 0 0 0.210526 
0 0 0.210526 0 0 0.210526 0 0 0.210526 
0 0 0.210526 0 0.0714286 0.210526 0 0.0714286 0.210526 
0 0.0714286 0.210526 0 0.0714286 0.210526 0 0.0714286 0.210526 
0 0.0714286 0.210526 0 0.0714286 0.210526 0 0.0714286 0.210526 
0 0.0714286 0.210526 0 0.0714286 0.210526 0 0.142857 0.210526 
0 0.142857 0.210526 0 0.142857 0.210526 0 0.142857 0.210526 
0 0.142857 0.210526 0 0.142857 0.210526 0 0.142857 0.210526 
0 0.142857 0.210526 0 0.142857 0.210526 0 0.142857 0.210526 
0 0.214286 0.210526 0 0.214286 0.210526 0 0.214286 0.210526 
0 0.214286 0.210526 0 0.214286 0.210526 0 0.214286 0.210526 
0 0.214286 0.210526 0 0.214286 0.210526 0 0.214286 0.210526 
0 0.214286 0.210526 0 0.285714 0.210526 0 0.285714 0.210526 
0 0.285714 0.210526 0 0.285714 0.210526 0 0.285714 0.210526 
0 0.285714 0.210526 0 0.285714 0.210526 0 0.285714 0.210526 
0 0.285714 0.210526 0 0.285714 0.210526 0 0.357143 0.210526 
0 0.357143 0.210526 0 0.357143 0.210526 0 0.357143 0.210526 
0 0.357143 0.210526 0 0.357143 0.210526 0 0.357143 0.210526 
0 0.357143 0.210526 0 0.357143 0.210526 0 0.357143 0.210526 
0 0.428571 0.210526 0 0.428571 0.210526 0 0.428571 0.210526 
0 0.428571 0.210526 0 0.428571 0.210526 0 0.428571 0.210526 
0 0.428571 0.210526 0 0.428571 0.210526 0 0.428571 0.210526 
0 0.428571 0.210526 0 0.5 0.210526 0 0.5 0.210526 
0 0.5 0.210526 0 0.5 0.210526 0 0.5 0.210526 
0 0.5 0.210526 0 0.5 0.210526 0 0.5 0.210526 
0 0.5 0.210526 0 0.5 0.210526 0 0.571429 0.210526 
0 0.571429 0.210526 0 0.571429 0.210526 0 0.571429 0.210526 
0 0.571429 0.210526 0 0.571429 0.210526 0 0.571429 0.210526 
0 0.571429 0.210526 0 0.571429 0.210526 0 0.571429 0.210526 
0 0.642857 0.210526 0 0.642857 0.210526 0 0.642857 0.210526 
0 0.642857 0.210526 0 0.642857 0.210526 0 0.642857 0.210526 
0 0.642857 0.210526 0 0.642857 0.210526 0 0.642857 0.210526 
0 0.642857 0.210526 0 0.714286 0.210526 0 0.714286 0.210526 
0 0.714286 0.210526 0 0.714286 0.210526 0 0.714286 0.210526 
0 0.714286 0.210526 0 0.714286 0.210526 0 0.714286 0.210526 
0 0.714286 0.210526 0 0.714286 0.210526 0 0.785714 0.210526 
0 0.785714 0.210526 0 0.785714 0.210526 0 0.785714 0.210526 
0 0.785714 0.210526 0 0.785714 0.210526 0 0.785714 0.210526 
0 0.785714 0.210526 0 0.785714 0.210526 0 0.785714 0.210526 
0 0.857143 0.210526 0 0.857143 0.210526 0 0.857143 0.210526 
0 0.857143 0.210526 0 0.857143 0.210526 0 0.857143 0.210526 
0 0.857143 0.210526 0 0.857143 0.210526 0 0.857143 0.210526 
0 0.857143 0.210526 0 0.928571 0.210526 0 0.928571 0.210526 
0 0.928571 0.210526 0 0.928571 0.210526 0 0.928571 0.210526 
0 0.928571 0.210526 0 0.928571 0.210526 0 0.928571 0.210526 
0 0.928571 0.210526 0 0.928571 0.210526 0 1 0.210526 
0 1 0.210526 0 1 0.210526 0 1 0.210526 
0 1 0.210526 0 1 0.210526 0 1 0.210526 
0 1 0.210526 0 1 0.210526 0 1 0.210526 
0 0 0.315789 0 0 0.315789 0 0 0.315789 
0 0 0.315789 0 0 0.315789 0 0 0.315789 
0 0 0.315789 0 0 0.315789 0 0 0.315789 
0 0 0.315789 0 0.0714286 0.315789 0 0.0714286 0.315789 
0 0.0714286 0.315789 0 0.0714286 0.315789 0 0.0714286 0.315789 
0 0.0714286 0.315789 0 0.0714286 0.315789 0 0.0714286 0.315789 
0 0.0714286 0.315789 0 0.0714286 0.315789 0 0.142857 0.315789 
0 0.142857 0.315789 0 0.142857 0.315789 0 0.142857 0.315789 
0 0.142857 0.315789 0 0.142857 0.315789 0 0.142857 0.315789 
0 0.142857 0.315789 0 0.142857 0.315789 0 0.142857 0.315789 
0 0.214286 0.315789 0 0.214286 0.315789 0 0.214286 0.315789 
0 0.214286 0.315789 0 0.214286 0.315789 0 0.214286 0.315789 
0 0.214286 0.315789 0 0.214286 0.315789 0 0.214286 0.315789 
0 0.214286 0.315789 0 0.285714 0.315789 0 0.285714 0.315789 
0 0.285714 0.315789 0 0.285714 0.315789 0 0.285714 0.315789 
0 0.285714 0.315789 0 0.285714 0.315789 0 0.285714 0.315789 
0 0.285714 0.315789 0 0.285714 0.315789 0 0.357143 0.315789 
0 0.357143 0.315789 0 0.357143 0.315789 0 0.357143 0.315789 
0 0.357143 0.315789 0 0.357143 0.315789 0 0.357143 0.315789 
0 0.357143 0.315789 0 0.357143 0.315789 0 0.357143 0.315789 
0 0.428571 0.315789 0 0.428571 0.315789 0 0.428571 0.315789 
0 0.428571 0.315789 0 0.428571 0.315789 0 0.428571 0.315789 
0 0.428571 0.315789 0 0.428571 0.315789 0 0.428571 0.315789 
0 0.428571 0.315789 0 0.5 0.315789 0 0.5 0.315789 
0 0.5 0.315789 0 0.5 0.315789 0 0.5 0.315789 
0 0.5 0.315789 0 0.5 0.315789 0 0.5 0.315789 
0 0.5 0.315789 0 0.5 0.315789 0 0.571429 0.315789 
0 0.571429 0.315789 0 0.571429 0.315789 0 0.571429 0.315789 
0 0.571429 0.315789 0 0.571429 0.315789 0 0.571429 0.315789 
0 0.571429 0.315789 0 0.571429 0.315789 0 0.571429 0.315789 
0 0.642857 0.315789 0 0.642857 0.315789 0 0.642857 0.315789 
0 0.642857 0.315789 0 0.642857 0.315789 0 0.642857 0.315789 
0 0.642857 0.315789 0 0.642857 0.315789 0 0.642857 0.315789 
0 0.642857 0.315789 0 0.714286 0.315789 0 0.714286 0.315789 
0 0.714286 0.315789 0 0.714286 0.315789 0 0.714286 0.315789 
0 0.714286 0.315789 0 0.714286 0.315789 0 0.714286 0.315789 
0 0.714286 0.315789 0 0.714286 0.315789 0 0.785714 0.315789 
0 0.785714 0.315789 0 0.785714 0.315789 0 0.785714 0.315789 
0 0.785714 0.315789 0 0.785714 0.315789 0 0.785714 0.315789 
0 0.785714 0.315789 0 0.785714 0.315789 0 0.785714 0.315789 
[...]
POINT_DATA 3000
FIELD FieldData 7
unknown 1 3000 double
7 7 7 7 7 7 7 7 7 
7 7 7 7 7 7 7 7 7 
7 7 7 7 7 7 7 7 7 
7 7 7 7 7 7 7 7 7 
7 7 7 7 7 7 7 7 7 
7 7 7 7 7 7 7 7 7 
7 7 7 7 7 7 7 7 7 
7 7 7 7 7 7 7 7 7 
7 7 7 7 7 7 7 7 7 
7 7 7 7 7 7 7 7 7 
7 7 7 7 7 7 7 7 7 
7 7 7 7 7 7 7 7 7 
7 7 7 7 7 7 7 7 7 
7 7 7 7 7 7 7 7 7 
7 7 7 7 7 7 7 7 7 
7 7 7 7 7 7 7 7 7 
7 7 7 7 7 7 7 1.7201704846 0.24554192031 
-0.26165438614 -0.47000650554 -0.5661099392 -0.61329175019 -0.6374452279 -0.65964081722 -1 7 3.779123332 
1.7699178085 0.71613324137 0.17688824707 -0.10086555026 -0.24517230415 -0.32123205081 -0.38328943842 -1 7 
4.9826493646 3.0519182742 1.7014337876 0.86181727676 0.3685230877 0.088176103801 -0.068760816174 -0.18728215224 -1 
7 5.699375149 4.0436748998 2.6059480732 1.555555049 0.85960270035 0.42683363218 0.16786313863 -0.022597879062 
-1 7 6.1322288238 4.7746096111 3.3792220964 2.2145063602 1.3575409411 0.77862614014 0.40886355424 
0.13545823805 -1 7 6.396239194 5.2960345267 4.0053033312 2.8037548238 1.8370329436 1.1341560578 
0.6572230092 0.29646566739 -1 7 6.5582952135 5.6590732763 4.4910140716 3.3040509429 2.2751000057 
1.4778541717 0.9066572426 0.46092323164 -1 7 6.6581197503 5.9069725666 4.8550293806 3.7106458768 
2.6566430712 1.7949719227 1.1474876215 0.624605918 -1 7 6.7196906433 6.0735121503 5.1201303545 
4.0290865501 2.9753034339 2.0750608849 1.3704766841 0.78167905992 -1 7 6.7576531729 6.1838250698 
5.3085627023 4.2707303215 3.2318976955 2.3129039559 1.5688590846 0.92671328357 -1 7 6.7810221076 
6.2559853118 5.4397223689 4.4491596078 3.4320215853 2.5079163583 1.7389817832 1.0557433236 -1 7 
6.7953687295 6.3026475279 5.5293302924 4.5777553394 3.5837063284 2.6628048671 1.8799831242 1.1665320752 -1 
7 6.804124277 6.3324176715 5.5893386472 4.6681060657 3.6952750716 2.7817305296 1.9926021809 1.2579732057 
-1 7 6.8092765033 6.3505782443 5.6274454341 4.7278314099 3.7719206577 2.8664372577 2.0755219057 
1.3271746848 -1 7 6.8111231689 6.3572167909 5.6416857104 4.7506452796 3.8018145615 2.9001218164 
2.1090808902 1.3555873884 -1 7 1.5669414615 0.0082168084754 -0.54022693219 -0.76915724916 -0.87579896145 
-0.92844821011 -0.95518674515 -0.97009991104 -1 7 3.5969027235 1.4328557396 0.28102203382 -0.31457714178 
-0.62350119731 -0.78469702453 -0.86911578885 -0.91663582234 -1 7 4.8277763333 2.7210590891 1.2326826305 
0.30075490786 -0.24943894042 -0.563097165 -0.73782446347 -0.83966043439 -1 7 5.5805162751 3.7572073149 
2.1631274247 0.99281952252 0.21477313136 -0.27011971142 -0.5591514502 -0.73570080634 -1 7 6.0438953518 
4.5391167409 2.985303886 1.6839760738 0.724188352 0.074783624621 -0.33864157784 -0.60454054345 -1 7 
6.330429883 5.1054784849 3.6638405887 2.3186346178 1.2344542772 0.44527142487 -0.08867231839 -0.450421792 -1 
7 6.5080543797 5.5038611756 4.1965235128 2.8657413516 1.7106274673 0.81486666998 0.17479193957 -0.2811347971 
-1 7 6.6182493023 5.777822152 4.5988328324 3.314526313 2.1304498781 1.1618029123 0.43575401612 
-0.10616461065 -1 7 6.6865676379 5.9627875499 4.8933510439 3.6681080408 2.4836920951 1.4713030475 
0.680847997 0.065199646021 -1 7 6.7288490849 6.0857425722 5.1034503848 3.9374834657 2.7694781388 
1.73572108 0.90071533018 0.22526040278 -1 7 6.7549486319 6.1663806613 5.2500659513 4.1369299795 
2.9930621781 1.9533544503 1.0902148219 0.36862204474 -1 7 6.771004306 6.2186237013 5.3504170848 
4.2809446695 3.1628821678 2.1266377427 1.2477692843 0.49221707769 -1 7 6.7808175513 6.2520003456 
5.417708148 4.3822617317 3.2879651034 2.2599005836 1.3738562968 0.59447938815 -1 7 6.7865982564 
6.2723804835 5.4604777859 4.4492943968 3.3739714762 2.3549126602 1.4668002152 0.67198006162 -1 7 
6.7886712651 6.2798338837 5.4764673822 4.4749098806 3.4075299009 2.3927115579 1.5044347879 0.70381906087 -1 
7 1.5618901128 -0.0011776158945 -0.55249398253 -0.78316601046 -0.89081958699 -0.94403820838 -0.97105165389 -0.98529873083 
-1 7 3.5879569879 1.414017278 0.25457764527 -0.34604898052 -0.65804404593 -0.82102191419 -0.90633228866 
-0.95220362916 -1 7 4.8180208147 2.6981051873 1.197884839 0.25717965655 -0.29884646498 -0.61610723756 
-0.79276441527 -0.89225062799 -1 7 5.5716016784 3.7341157396 2.1254580674 0.94309885313 0.15631943818 
-0.33435275357 -0.62671148743 -0.80070444056 -1 7 6.0363748764 4.5179678419 2.9484061331 1.632716225 
0.66163929256 0.0042431639891 -0.41410669301 -0.67772883859 -1 7 6.3242859235 5.0869728291 3.6295781171 
2.268721909 1.1713074929 0.37215366843 -0.16832726112 -0.52843978394 -1 7 6.5030480519 5.4879280722 
4.1655029597 2.8186154724 1.6489889534 0.74166658538 0.093583119956 -0.36154549593 -1 7 6.6141000093 
5.764055768 4.570931723 3.270625586 2.0713389236 1.089973724 0.35468284084 -0.18732992652 -1 7 
6.683027975 5.950699343 4.8681075524 3.6272790814 2.4273885394 1.401522717 0.60086711651 -0.015715135911 -1 
7 6.7257262728 6.0748832727 5.0803051798 3.8992862214 2.7158218872 1.6681489389 0.82224776489 0.14513360278 
-1 7 6.7521026068 6.1563850628 5.2284905209 4.1008348055 2.9416756396 1.8878419666 1.013336207 
0.28949791093 -1 7 6.7683378009 6.2092157668 5.3299680531 4.2464429139 3.11331657 2.0628829132 
1.1723508808 0.41410445293 -1 7 6.7782649019 6.2429805091 5.3980376139 4.3489137779 3.2397813585 
2.1975455362 1.2996634829 0.51726568822 -1 7 6.7841142667 6.2636024046 5.4413103797 4.4167205731 
3.3267497265 2.293568348 1.3935259122 0.59546536462 -1 7 6.7862121566 6.2711449697 5.4574892763 
4.4426332247 3.36068468 2.3317703337 1.4315335865 0.62759325623 -1 7 1.5617016684 -0.0015899748583 
-0.55309406112 -0.78390111105 -0.89164349104 -0.94491673371 -0.97195827045 -0.98615821389 -1 7 3.5875311584 
1.4130075899 0.25303336075 -0.34799875333 -0.66026946735 -0.82342061346 -0.90882227406 -0.95456366145 -1 7 
4.8174581298 2.6966533534 1.1955214123 0.25406261139 -0.30251028054 -0.62013219204 -0.79699001905 -0.89626697195 -1 
7 5.5710029203 3.7324476161 2.1225696738 0.93910872079 0.15147092619 -0.33980159933 -0.63251427053 -0.80624997426 
-1 7 6.0358038073 4.5162659199 2.9452839266 1.6282013282 0.65596136083 -0.0022963263479 -0.4211843142 
-0.68454332482 -1 7 6.3237704212 5.085345246 3.626432318 2.2639725914 1.1651303582 0.3648598048 
-0.17635660905 -0.53623841503 -1 7 6.5025923695 5.4864189802 4.1624506942 2.8138243222 1.6425582887 
0.73388892896 0.084875657375 -0.37008122961 -1 7 6.613696369 5.7626676077 4.5680159627 3.2658919363 
2.0648045081 1.0818946395 0.34549349616 -0.19641973 -1 7 6.6826643752 5.9494131304 4.8653240178 
3.6226328357 2.4208194087 1.393242627 0.59131484223 -0.025242294455 -1 7 6.7253907806 6.0736726873 
5.0776258665 3.8947150512 2.7092313731 1.6597064456 0.8123894783 0.13523071151 -1 7 6.7517852496 
6.1552245538 5.2258801994 4.0963068665 2.9350461399 1.8792374081 1.0031876709 0.279242859 -1 7 
6.76803108 6.2080843196 5.3273940155 4.2419227114 3.1066194138 2.0540996689 1.1619075872 0.40350097985 -1 
7 6.777963644 6.2418628131 5.3954745672 4.3443721771 3.2329916358 2.1885683915 1.2889210155 0.50631710444 
-1 7 6.7838152617 6.2624889226 5.4387432312 4.412142993 3.3198618505 2.2844071521 1.382510844 
0.58420737706 -1 7 6.7859137006 6.2700319402 5.4549177845 4.438036481 3.3537500838 2.3225248778 
1.4203957082 0.61619679508 -1 7 1.5616934685 -0.0016110327384 -0.55312889119 -0.78394813762 -0.89169990999 
-0.9449793864 -0.97202391386 -0.98621959223 -1 7 3.58750942 1.4129488246 0.25293273094 -0.3481377436 
-0.66043863915 -0.82361008347 -0.90902159367 -0.95474997117 -1 7 4.8174236612 2.6965534522 1.1953405623 
0.25380237624 -0.30283606862 -0.62050350542 -0.79738400745 -0.89663537155 -1 7 5.5709585487 3.7323098489 
2.1223051788 0.93871048876 0.15095609202 -0.34040048752 -0.63315624552 -0.80685080139 -1 7 6.0357517783 
4.516093935 2.9449348049 1.6276519801 0.65522809997 -0.0031671396867 -0.42212764504 -0.6854273356 -1 7 
6.3237114381 5.0851396257 3.6259940225 2.2632551803 1.1641444194 0.36366603104 -0.1776630168 -0.53746476102 -1 
7 6.5025257613 5.4861768229 4.1619135352 2.8129155892 1.6412776641 0.73231133094 0.083132476643 -0.37172139052 
-1 7 6.6136207214 5.7623838833 4.5673669135 3.2647645015 2.0631820836 1.0798654503 0.34323053386 
-0.19855570591 -1 7 6.6825781836 5.9490825504 4.8645500141 3.6212600012 2.4188092515 1.3906946151 
0.58844759494 -0.027959758851 -1 7 6.7252929216 6.0732912814 5.0767169999 3.8930759562 2.7067960117 
1.6565821199 0.80884233324 0.13185218293 -1 7 6.7516752248 6.1547906164 5.224831897 4.0943904179 
2.9321626761 1.87549744 0.99890418751 0.27514011592 -1 7 6.7679090774 6.2075987557 5.3262080708 
4.2397298676 3.1032837312 2.0497295513 1.1568595815 0.39863719146 -1 7 6.7778305459 6.2413293241 
5.3941599788 4.3419182883 3.229223351 2.1835869978 1.2831209797 0.50069586718 -1 7 6.7836729878 
6.26191566 5.4373211375 4.4094688702 3.3157245261 2.2788980897 1.3760539946 0.57791808091 -1 7 
6.785767495 6.269441599 5.4534493544 4.4352669645 3.34945201 2.3167846062 1.413649393 0.60961166122 -1 
7 1.5616919714 -0.0016161845803 -0.55313966736 -0.78396520751 -0.89172222984 -0.94500464898 -0.97204934141 -0.98624144694 
-1 7 3.5875045861 1.412931969 0.25289716533 -0.34819440414 -0.66051300996 -0.82369447049 -0.90910665086 
-0.95482309823 -1 7 4.8174127356 2.6965145201 1.1952570229 0.25366762188 -0.30301457056 -0.62070738457 
-0.79759037732 -0.89681310499 -1 7 5.57093784 3.7322346063 2.1221409546 0.93844186647 0.15059624286 
-0.34081514636 -0.63357869775 -0.80721598583 -1 7 6.0357168201 4.5159648649 2.9446486439 1.6271772796 
0.65458435822 -0.003916681053 -0.42289769768 -0.68609679854 -1 7 6.3236574429 5.0849375713 3.6255395526 
2.2624907728 1.1630944795 0.36242942714 -0.17894605433 -0.53858842836 -1 7 6.5024482518 5.485883367 
4.1612445939 2.8117751289 1.6396906873 0.73041936085 0.081147939179 -0.3734743806 -1 7 6.6135161512 
5.7619838183 4.5664434723 3.2631693861 2.0609334253 1.0771509903 0.34035026785 -0.20112381439 -1 7 
6.6824443831 5.9485657998 4.8633432161 3.619149086 2.4157953546 1.3870107383 0.58449243983 -0.031520795167 -1 
7 6.7251292849 6.0726538812 5.0752122344 3.8904124062 2.7029462333 1.6518187928 0.80366810758 0.12714758421 
-1 7 6.7514826422 6.1540346948 5.2230295487 4.0911646689 2.9274460637 1.8695929689 0.99241721244 
0.26918486987 -1 7 6.7676896991 6.206731797 5.3241224531 4.2359592725 3.0977111142 2.0426767113 
1.1490273061 0.39138061058 -1 7 6.7775875858 6.2403635605 5.3918185252 4.3376472712 3.2228505217 
2.1754413789 1.2739864264 0.49216143278 -1 7 6.7834112704 6.2608705857 5.4347717804 4.404785475 
3.3086825481 2.2698251301 1.3657986155 0.5682708875 -1 7 6.7854978885 6.2683630119 5.4508115973 
4.4304069867 3.3421213841 2.3073086778 1.4029035562 0.59947473551 -1 7 1.5616889279 -0.0016268441751 
-0.55316181762 -0.78399947057 -0.89176547652 -0.94505149807 -0.97209416253 -0.98627801337 -1 7 3.5874944539 
1.4128963971 0.25282305711 -0.34830932817 -0.66065841318 -0.8238523357 -0.90925798844 -0.95494677025 -1 7 
4.8173886882 2.6964295266 1.1950786396 0.2533889633 -0.30336959147 -0.621095343 -0.79796450897 -0.89712034862 -1 
7 5.5708906143 3.7320661669 2.121783797 0.93787817044 0.14987093149 -0.34161517999 -0.63435688759 -0.80785964767 
-1 7 6.0356356511 4.5156723377 2.9440209115 1.6261743781 0.65327847959 -0.0053735163369 -0.42432979534 
-0.68729186218 -1 7 6.3235315455 5.0844788687 3.6245425287 2.2608765631 1.1609648522 0.3600233701 
-0.18133955555 -0.54060593099 -1 7 6.5022684176 5.4852209758 4.1597859449 2.8093809026 1.6364883223 
0.72675257583 0.077453669668 -0.37662208935 -1 7 6.6132760229 5.7610900233 4.5644499219 3.2598521715 
2.0564347162 1.0719291376 0.33502013075 -0.20571630378 -1 7 6.6821411309 5.9474259043 4.8607695548 
3.6148096027 2.4098299614 1.3799923011 0.57723439334 -0.037844822598 -1 7 6.724763627 6.071266978 
5.0720450723 3.8850050595 2.6954158022 1.6428425347 0.79426644897 0.11886531354 -1 7 6.7510583379 
6.1524122884 5.2192859288 4.0846987451 2.9183312541 1.8585928011 0.98075465257 0.25880192107 -1 7 
6.7672127677 6.2048951559 5.3198450259 4.2284935527 3.087068957 2.0296851351 1.1350959139 0.37885435042 -1 
7 6.7770656803 6.2383415285 5.3870714646 4.3292855588 3.2108130216 2.1605951129 1.2579024484 0.4775698077 
-1 7 6.7828544651 6.2587031937 5.4296514002 4.3957004819 3.2955004873 2.253432951 1.3478926856 
0.55190863087 -1 7 6.7849265877 6.2661349234 5.4455342309 4.4210154432 3.3284502562 2.2902505754 
1.3842067473 0.58233898637 -1 7 1.5616809773 -0.0016535474974 -0.55321470359 -0.78407733172 -0.89185906183 
-0.94514816946 -0.97218253905 -0.98634732473 -1 7 3.5874680898 1.4128076043 0.25264668259 -0.34856974122 
-0.66097226303 -0.82417734837 -0.90955579557 -0.95518078152 -1 7 4.8173268535 2.6962196225 1.1946581259 
0.25276288939 -0.30413009467 -0.62188868145 -0.79869633428 -0.89769864568 -1 7 5.5707712066 3.7316564729 
2.1209533184 0.93662722221 0.14833437177 -0.34323491981 -0.63586551655 -0.80906149619 -1 7 6.0354344549 
4.514973622 2.9425851615 1.6239818602 0.6505494384 -0.0082867062823 -0.42707510602 -0.68950068211 -1 7 
6.3232260751 5.08340463 3.6223030764 2.2574058431 1.1565818364 0.35527913278 -0.18586915514 -0.54429105837 -1 
7 6.5018414542 5.4837008224 4.1565706558 2.8043221248 1.6300033975 0.71963033638 0.07055915136 -0.38229785335 
-1 7 6.6127178992 5.7590794513 4.5601372775 3.2529654939 2.0474737524 1.0619420616 0.32521556732 
-0.21388585136 -1 7 6.6814503859 5.9449104923 4.8553023314 3.6059545662 2.3981398343 1.3667748199 
0.56407677429 -0.048940901511 -1 7 6.7239461983 6.0682610106 5.0654318472 3.8741511498 2.6808892743 
1.6261903318 0.77746533861 0.10453003569 -1 7 6.7501257997 6.1489532956 5.2115924648 4.0719182105 
2.9010078367 1.838476416 0.96019847739 0.24106649459 -1 7 6.7661802571 6.2010366621 5.3111801266 
4.2139428044 3.0671181915 2.0062420462 1.1108565382 0.35772355307 -1 7 6.7759503301 6.2341473327 
5.3775752954 4.313189248 3.1885201145 2.1341242327 1.2302432872 0.45323301525 -1 7 6.7816764892 
6.2542522484 5.4195097402 4.3783836404 3.2713254848 2.2244864138 1.3173905405 0.52486927075 -1 7 
6.78372295 6.2615781355 5.4351243674 4.4031870293 3.3034792932 2.2602477356 1.3524813292 0.55412863238 -1 
7 1.5616600851 -0.0017203392573 -0.55333997555 -0.78425194313 -0.89205806058 -0.94534350481 -0.97235271295 -0.98647535235 
-1 7 3.5873991732 1.4125865238 0.2522305666 -0.34915169356 -0.66163755115 -0.82483224495 -0.91012780538 
-0.95561205343 -1 7 4.8171676163 2.6957038277 1.1936774356 0.25137802884 -0.30572757127 -0.6234742716 
-0.80009170872 -0.89875736052 -1 7 5.5704698776 3.7306677805 2.1190474846 0.93389970355 0.14514820396 
-0.346434646 -0.63871180641 -0.81124070696 -1 7 6.0349382892 4.5133222296 2.9393517304 1.6192820822 
0.6449773684 -0.013961135481 -0.43218844763 -0.69345878964 -1 7 6.3224906523 5.0809210588 3.6173603243 
2.2501023349 1.1477832138 0.34618118058 -0.19418543903 -0.55080745839 -1 7 6.5008377497 5.4802632591 
4.1496181114 2.7938772144 1.6172129377 0.70619420683 0.058092410451 -0.39219275133 -1 7 6.6114354657 
5.7546293035 4.5509973588 3.2390118568 2.0301093789 1.043411468 0.30776078161 -0.2279215762 -1 7 
6.6798965992 5.939454189 4.8439351409 3.5883354463 2.3758736475 1.3426474963 0.54101203065 -0.067727653279 -1 
7 6.7221426546 6.061860509 5.0519245913 3.8529205958 2.6536701355 1.5962664841 0.74845215455 0.080603754768 
-1 7 6.748103378 6.1417100843 5.1961314079 4.0473092547 2.8690393722 1.8028572742 0.92520298124 
0.21186790044 -1 7 6.7639742679 6.1930745107 5.2940159161 4.18631907 3.0308088523 1.9652923972 
1.0701329837 0.32337810489 -1 7 6.7735971615 6.225599665 5.3589959942 4.2830051631 3.1484402804 
2.0884397452 1.1843213801 0.41413100661 -1 7 6.7792151315 6.2452685349 5.3998587566 4.34622445 
3.228281358 2.1750088418 1.2672287293 0.48182863587 -1 7 6.7812179113 6.2524171598 5.4150338612 
4.3702099406 3.2591954728 2.2091683807 1.3005124937 0.50939646045 -1 7 1.5616050748 -0.0018863582673 
-0.55363277329 -0.78463604527 -0.89247105649 -0.9457271001 -0.97267000719 -0.98670360283 -1 7 3.5872188465 
1.4120399366 0.25126244937 -0.35042673192 -0.66301342757 -0.82611432198 -0.91119137935 -0.95637901756 -1 7 
4.8167582318 2.6944479127 1.191425835 0.24837881085 -0.30899770593 -0.62655029732 -0.80266525272 -0.90062644404 -1 
7 5.5697130405 3.7283094108 2.1147505331 0.92808701059 0.13871890535 -0.3525626647 -0.64390080147 -0.8150477086 
-1 7 6.0337239407 4.5094735983 2.9322119939 1.6094524828 0.63392265635 -0.024662809398 -0.4413809849 
-0.70028565436 -1 7 6.3207377279 5.0752709957 3.6066835539 2.2351305301 1.1306448566 0.32930958327 
-0.20890641165 -0.56188757315 -1 7 6.4985061105 5.4726267908 4.1349267286 2.7728970905 1.5927645986 
0.68170997998 0.036380181941 -0.40876522428 -1 7 6.6085274132 5.7449647431 4.5320893299 3.2115360373 
1.9975319417 1.0102299906 0.27785653898 -0.25106994333 -1 7 6.6764500908 5.9278501854 4.8208827387 
3.5542915417 2.3348429597 1.3001739892 0.50212920528 -0.098242110921 -1 7 6.7182200543 6.0485035128 
5.0250264338 3.8126113217 2.6043506645 1.5444342189 0.70029316933 0.042311760586 -1 7 6.7437794538 
6.1268446313 5.1658399049 4.0013222899 2.8120041556 1.7420808496 0.86795325026 0.1657884376 -1 7 
6.7593261154 6.1769667781 5.2608626467 4.1354199614 2.9669228494 1.8963687375 1.0043972038 0.26987565488 -1 
7 6.7686980415 6.2085133554 5.3235382343 4.2280548604 3.0787648057 2.0124629481 1.1110674314 0.35392172081 
-1 7 6.7741370021 6.2274739336 5.3627017474 4.2882259719 3.1541590044 2.0935030416 1.1879655189 
0.41616984746 -1 7 6.7760686632 6.2343389614 5.377189725 4.3109656025 3.1832357254 2.1253536144 
1.2187143519 0.4414194282 -1 7 1.5614597318 -0.0022962005846 -0.55430668293 -0.78546226097 -0.8933043213 
-0.94645585379 -0.97323993956 -0.98709419011 -1 7 3.5867460448 1.4106991973 0.24904617713 -0.35315677498 
-0.66577835362 -0.82854151108 -0.91309590838 -0.95768785248 -1 7 4.8157071712 2.6914218534 1.1863496889 
0.2420415171 -0.31549380081 -0.63231483189 -0.80723232677 -0.90379046786 -1 7 5.5678217054 3.7227593075 
2.1052606502 0.9160253187 0.12615024218 -0.36388395854 -0.65299244844 -0.82141854744 -1 7 6.0307766346 
4.5006489171 2.916805288 1.589474535 0.61271123245 -0.044103696187 -0.45724364044 -0.71155283655 -1 7 
6.3166054031 5.0626536675 3.5841905836 2.2053586212 1.0984088623 0.29921346552 -0.23388867472 -0.57989631727 -1 
7 6.4931595945 5.456003627 4.104697285 2.7320767491 1.5476971066 0.63884250224 0.00016572460567 -0.43527174465 
-1 7 6.6020265284 5.7244221327 4.4940432849 3.1591863815 1.9386493955 0.95319770141 0.22883396604 
-0.28749888555 -1 7 6.6689184359 5.9037123124 4.7754423762 3.4906867605 2.2620518959 1.2284531206 
0.43945022776 -0.14550571803 -1 7 6.709815835 6.02124487 4.972976541 3.7386352943 2.5183516951 
1.458352309 0.62388883947 -0.016101881911 -1 7 6.7346698478 6.0970036329 5.108166496 3.9182605096 
2.7140914111 1.6426706735 0.7784604718 0.096491953204 -1 7 6.7496689991 6.1450776705 5.1986105487 
4.0447512705 2.8587510662 1.7851604101 0.90300904284 0.19046238179 -1 7 6.7586327762 6.1750671433 
5.2577195484 4.1313043158 2.9621712108 1.8913140728 0.99940429617 0.26558215605 -1 7 6.763789875 
6.1929345346 5.2943270576 4.1870192327 3.0312545275 1.9647388535 1.0682634366 0.32072079328 -1 7 
6.7656115047 6.1993690095 5.3077971424 4.2079630466 3.0577573896 1.9934470944 1.0956583624 0.3429766812 -1 
7 1.5610735862 -0.0033004630046 -0.5558303347 -0.78719344517 -0.89493077374 -0.94778765096 -0.97421998622 -0.98773140169 
-1 7 3.5855020222 1.4074394417 0.24406742884 -0.35884637846 -0.67115051125 -0.83295963761 -0.91635957474 
-0.9598165828 -1 7 4.8130111083 2.6842193214 1.1751490025 0.22903457522 -0.32795017432 -0.64268804438 
-0.81498013859 -0.9088907738 -1 7 5.5631208505 3.7099032486 2.0848078473 0.89177202961 0.10247974359 
-0.38393489009 -0.66819943566 -0.83155904808 -1 7 6.0236892449 4.4807961628 2.8844492401 1.550218977 
0.57357877878 -0.077903941431 -0.48333760419 -0.72921854838 -1 7 6.3069817103 5.0350787883 3.5381748067 
2.1482338721 1.0402105867 0.24790987242 -0.27425093795 -0.60767059543 -1 7 6.4810720528 5.4206538927 