# vtk DataFile Version 5.1
vtk output
ASCII
DATASET STRUCTURED_GRID
DIMENSIONS 10 15 20
POINTS 3000 float
0 0 0 0 0 0 0 0 0 
0 0 0 0 0 0 0 0 0 
0 0 0 0 0 0 0 0 0 
0 0 0 0 0.0714286 0 0 0.0714286 0 
0 0.0714286 0 0 0.0714286 0 0 0.0714286 0 
0 0.0714286 0 0 0.0714286 0 0 0.0714286 0 
0 0.0714286 0 0 0.0714286 0 0 0.142857 0 
0 0.142857 0 0 0.142857 0 0 0.142857 0 
0 0.142857 0 0 0.142857 0 0 0.142857 0 
0 0.142857 0 0 0.142857 0 0 0.142857 0 
0 0.214286 0 0 0.214286 0 0 0.214286 0 
0 0.214286 0 0 0.214286 0 0 0.214286 0 
0 0.214286 0 0 0.214286 0 0 0.214286 0 
0 0.214286 0 0 0.285714 0 0 0.285714 0 
0 0.285714 0 0 0.285714 0 0 0.285714 0 
0 0.285714 0 0 0.285714 0 0 0.285714 0 
0 0.285714 0 0 0.285714 0 0 0.357143 0 
0 0.357143 0 0 0.357143 0 0 0.357143 0 
0 0.357143 0 0 0.357143 0 0 0.357143 0 
0 0.357143 0 0 0.357143 0 0 0.357143 0 
0 0.428571 0 0 0.428571 0 0 0.428571 0 
0 0.428571 0 0 0.428571 0 0 0.428571 0 
0 0.428571 0 0 0.428571 0 0 0.428571 0 
0 0.428571 0 0 0.5 0 0 0.5 0 
0 0.5 0 0 0.5 0 0 0.5 0 
0 0.5 0 0 0.5 0 0 0.5 0 
0 0.5 0 0 0.5 0 0 0.571429 0 
0 0.571429 0 0 0.571429 0 0 0.571429 0 
0 0.571429 0 0 0.571429 0 0 0.571429 0 
0 0.571429 0 0 0.571429 0 0 0.571429 0 
0 0.642857 0 0 0.642857 0 0 0.642857 0 
0 0.642857 0 0 0.642857 0 0 0.642857 0 
0 0.642857 0 0 0.642857 0 0 0.642857 0 
0 0.642857 0 0 0.714286 0 0 0.714286 0 
0 0.714286 0 0 0.714286 0 0 0.714286 0 
0 0.714286 0 0 0.714286 0 0 0.714286 0 
0 0.714286 0 0 0.714286 0 0 0.785714 0 
0 0.785714 0 0 0.785714 0 0 0.785714 0 
0 0.785714 0 0 0.785714 0 0 0.785714 0 
0 0.785714 0 0 0.785714 0 0 0.785714 0 
0 0.857143 0 0 0.857143 0 0 0.857143 0 
0 0.857143 0 0 0.857143 0 0 0.857143 0 
0 0.857143 0 0 0.857143 0 0 0.857143 0 
0 0.857143 0 0 0.928571 0 0 0.928571 0 
0 0.928571 0 0 0.928571 0 0 0.928571 0 
0 0.928571 0 0 0.928571 0 0 0.928571 0 
0 0.928571 0 0 0.928571 0 0 1 0 
0 1 0 0 1 0 0 1 0 
0 1 0 0 1 0 0 1 0 
0 1 0 0 1 0 0 1 0 
0 0 0.105263 0 0 0.105263 0 0 0.105263 
0 0 0.105263 0 0 0.105263 0 0 0.105263 
0 0 0.105263 0 0 0.105263 0 0 0.105263 
0 0 0.105263 0 0.0714286 0.105263 0 0.0714286 0.105263 
0 0.0714286 0.105263 0 0.0714286 0.105263 0 0.0714286 0.105263 
0 0.0714286 0.105263 0 0.0714286 0.105263 0 0.0714286 0.105263 
0 0.0714286 0.105263 0 0.0714286 0.105263 0 0.142857 0.105263 
0 0.142857 0.105263 0 0.142857 0.105263 0 0.142857 0.105263 
0 0.142857 0.105263 0 0.142857 0.105263 0 0.142857 0.105263 
0 0.142857 0.105263 0 0.142857 0.105263 0 0.142857 0.105263 
0 0.214286 0.105263 0 0.214286 0.105263 0 0.214286 0.105263 
0 0.214286 0.105263 0 0.214286 0.105263 0 0.214286 0.105263 
0 0.214286 0.105263 0 0.214286 0.105263 0 0.214286 0.105263 
0 0.214286 0.105263 0 0.285714 0.105263 0 0.285714 0.105263 
0 0.285714 0.105263 0 0.285714 0.105263 0 0.285714 0.105263 
0 0.285714 0.105263 0 0.285714 0.105263 0 0.285714 0.105263 
0 0.285714 0.105263 0 0.285714 0.105263 0 0.357143 0.105263 
0 0.357143 0.105263 0 0.357143 0.105263 0 0.357143 0.105263 
0 0.357143 0.105263 0 0.357143 0.105263 0 0.357143 0.105263 
0 0.357143 0.105263 0 0.357143 0.105263 0 0.357143 0.105263 
0 0.428571 0.105263 0 0.428571 0.105263 0 0.428571 0.105263 
0 0.428571 0.105263 0 0.428571 0.105263 0 0.428571 0.105263 
0 0.428571 0.105263 0 0.428571 0.105263 0 0.428571 0.105263 
0 0.428571 0.105263 0 0.5 0.105263 0 0.5 0.105263 
0 0.5 0.105263 0 0.5 0.105263 0 0.5 0.105263 
0 0.5 0.105263 0 0.5 0.105263 0 0.5 0.105263 
0 0.5 0.105263 0 0.5 0.105263 0 0.571429 0.105263 
0 0.571429 0.105263 0 0.571429 0.105263 0 0.571429 0.105263 
0 0.571429 0.105263 0 0.571429 0.105263 0 0.571429 0.105263 
0 0.571429 0.105263 0 0.571429 0.105263 0 0.571429 0.105263 
0 0.642857 0.105263 0 0.642857 0.105263 0 0.642857 0.105263 
0 0.642857 0.105263 0 0.642857 0.105263 0 0.642857 0.105263 
0 0.642857 0.105263 0 0.642857 0.105263 0 0.642857 0.105263 
0 0.642857 0.105263 0 0.714286 0.105263 0 0.714286 0.105263 
0 0.714286 0.105263 0 0.714286 0.105263 0 0.714286 0.105263 
0 0.714286 0.105263 0 0.714286 0.105263 0 0.714286 0.105263 
0 0.714286 0.105263 0 0.714286 0.105263 0 0.785714 0.105263 
0 0.785714 0.105263 0 0.785714 0.105263 0 0.785714 0.105263 
0 0.785714 0.105263 0 0.785714 0.105263 0 0.785714 0.105263 
0 0.785714 0.105263 0 0.785714 0.105263 0 0.785714 0.105263 
0 0.857143 0.105263 0 0.857143 0.105263 0 0.857143 0.105263 
0 0.857143 0.105263 0 0.857143 0.105263 0 0.857143 0.105263 
0 0.857143 0.105263 0 0.857143 0.105263 0 0.857143 0.105263 
0 0.857143 0.105263 0 0.928571 0.105263 0 0.928571 0.105263 
0 0.928571 0.105263 0 0.928571 0.105263 0 0.928571 0.105263 
0 0.928571 0.105263 0 0.928571 0.105263 0 0.928571 0.105263 
0 0.928571 0.105263 0 0.928571 0.105263 0 1 0.105263 
0 1 0.105263 0 1 0.105263 0 1 0.105263 
0 1 0.105263 0 1 0.105263 0 1 0.105263 
0 1 0.105263 0 1 0.105263 0 1 0.105263 
0 0 0.210526 0 0 0.210526 0 0 0.210526 
0 0 0.210526 0 0 0.210526 0 0 0.210526 
0 0 0.210526 0 0 0.210526 0 0 0.210526 
0 0 0.210526 0 0.0714286 0.210526 0 0.0714286 0.210526 
0 0.0714286 0.210526 0 0.0714286 0.210526 0 0.0714286 0.210526 
0 0.0714286 0.210526 0 0.0714286 0.210526 0 0.0714286 0.210526 
0 0.0714286 0.210526 0 0.0714286 0.210526 0 0.142857 0.210526 
0 0.142857 0.210526 0 0.142857 0.210526 0 0.142857 0.210526 
0 0.142857 0.210526 0 0.142857 0.210526 0 0.142857 0.210526 
0 0.142857 0.210526 0 0.142857 0.210526 0 0.142857 0.210526 
0 0.214286 0.210526 0 0.214286 0.210526 0 0.214286 0.210526 
0 0.214286 0.210526 0 0.214286 0.210526 0 0.214286 0.210526 
0 0.214286 0.210526 0 0.214286 0.210526 0 0.214286 0.210526 
0 0.214286 0.210526 0 0.285714 0.210526 0 0.285714 0.210526 
0 0.285714 0.210526 0 0.285714 0.210526 0 0.285714 0.210526 
0 0.285714 0.210526 0 0.285714 0.210526 0 0.285714 0.210526 
0 0.285714 0.210526 0 0.285714 0.210526 0 0.357143 0.210526 
0 0.357143 0.210526 0 0.357143 0.210526 0 0.357143 0.210526 
0 0.357143 0.210526 0 0.357143 0.210526 0 0.357143 0.210526 
0 0.357143 0.210526 0 0.357143 0.210526 0 0.357143 0.210526 
0 0.428571 0.210526 0 0.428571 0.210526 0 0.428571 0.210526 
0 0.428571 0.210526 0 0.428571 0.210526 0 0.428571 0.210526 
0 0.428571 0.210526 0 0.428571 0.210526 0 0.428571 0.210526 
0 0.428571 0.210526 0 0.5 0.210526 0 0.5 0.210526 
0 0.5 0.210526 0 0.5 0.210526 0 0.5 0.210526 
0 0.5 0.210526 0 0.5 0.210526 0 0.5 0.210526 
0 0.5 0.210526 0 0.5 0.210526 0 0.571429 0.210526 
0 0.571429 0.210526 0 0.571429 0.210526 0 0.571429 0.210526 
0 0.571429 0.210526 0 0.571429 0.210526 0 0.571429 0.210526 
0 0.571429 0.210526 0 0.571429 0.210526 0 0.571429 0.210526 
0 0.642857 0.210526 0 0.642857 0.210526 0 0.642857 0.210526 
0 0.642857 0.210526 0 0.642857 0.210526 0 0.642857 0.210526 
0 0.642857 0.210526 0 0.642857 0.210526 0 0.642857 0.210526 
0 0.642857 0.210526 0 0.714286 0.210526 0 0.714286 0.210526 
0 0.714286 0.210526 0 0.714286 0.210526 0 0.714286 0.210526 
0 0.714286 0.210526 0 0.714286 0.210526 0 0.714286 0.210526 
0 0.714286 0.210526 0 0.714286 0.210526 0 0.785714 0.210526 
0 0.785714 0.210526 0 0.785714 0.210526 0 0.785714 0.210526 
0 0.785714 0.210526 0 0.785714 0.210526 0 0.785714 0.210526 
0 0.785714 0.210526 0 0.785714 0.210526 0 0.785714 0.210526 
0 0.857143 0.210526 0 0.857143 0.210526 0 0.857143 0.210526 
0 0.857143 0.210526 0 0.857143 0.210526 0 0.857143 0.210526 
0 0.857143 0.210526 0 0.857143 0.210526 0 0.857143 0.210526 
0 0.857143 0.210526 0 0.928571 0.210526 0 0.928571 0.210526 
0 0.928571 0.210526 0 0.928571 0.210526 0 0.928571 0.210526 
0 0.928571 0.210526 0 0.928571 0.210526 0 0.928571 0.210526 
0 0.928571 0.210526 0 0.928571 0.210526 0 1 0.210526 
0 1 0.210526 0 1 0.210526 0 1 0.210526 
0 1 0.210526 0 1 0.210526 0 1 0.210526 
0 1 0.210526 0 1 0.210526 0 1 0.210526 
0 0 0.315789 0 0 0.315789 0 0 0.315789 
0 0 0.315789 0 0 0.315789 0 0 0.315789 
0 0 0.315789 0 0 0.315789 0 0 0.315789 
0 0 0.315789 0 0.0714286 0.315789 0 0.0714286 0.315789 
0 0.0714286 0.315789 0 0.0714286 0.315789 0 0.0714286 0.315789 
0 0.0714286 0.315789 0 0.0714286 0.315789 0 0.0714286 0.315789 
0 0.0714286 0.315789 0 0.0714286 0.315789 0 0.142857 0.315789 
0 0.142857 0.315789 0 0.142857 0.315789 0 0.142857 0.315789 
0 0.142857 0.315789 0 0.142857 0.315789 0 0.142857 0.315789 
0 0.142857 0.315789 0 0.142857 0.315789 0 0.142857 0.315789 
0 0.214286 0.315789 0 0.214286 0.315789 0 0.214286 0.315789 
0 0.214286 0.315789 0 0.214286 0.315789 0 0.214286 0.315789 
0 0.214286 0.315789 0 0.214286 0.315789 0 0.214286 0.315789 
0 0.214286 0.315789 0 0.285714 0.315789 0 0.285714 0.315789 
0 0.285714 0.315789 0 0.285714 0.315789 0 0.285714 0.315789 
0 0.285714 0.315789 0 0.285714 0.315789 0 0.285714 0.315789 
0 0.285714 0.315789 0 0.285714 0.315789 0 0.357143 0.315789 
0 0.357143 0.315789 0 0.357143 0.315789 0 0.357143 0.315789 
0 0.357143 0.315789 0 0.357143 0.315789 0 0.357143 0.315789 
0 0.357143 0.315789 0 0.357143 0.315789 0 0.357143 0.315789 
0 0.428571 0.315789 0 0.428571 0.315789 0 0.428571 0.315789 
0 0.428571 0.315789 0 0.428571 0.315789 0 0.428571 0.315789 
0 0.428571 0.315789 0 0.428571 0.315789 0 0.428571 0.315789 
0 0.428571 0.315789 0 0.5 0.315789 0 0.5 0.315789 
0 0.5 0.315789 0 0.5 0.315789 0 0.5 0.315789 
0 0.5 0.315789 0 0.5 0.315789 0 0.5 0.315789 
0 0.5 0.315789 0 0.5 0.315789 0 0.571429 0.315789 
0 0.571429 0.315789 0 0.571429 0.315789 0 0.571429 0.315789 
0 0.571429 0.315789 0 0.571429 0.315789 0 0.571429 0.315789 
0 0.571429 0.315789 0 0.571429 0.315789 0 0.571429 0.315789 
0 0.642857 0.315789 0 0.642857 0.315789 0 0.642857 0.315789 
0 0.642857 0.315789 0 0.642857 0.315789 0 0.642857 0.315789 
0 0.642857 0.315789 0 0.642857 0.315789 0 0.642857 0.315789 
0 0.642857 0.315789 0 0.714286 0.315789 0 0.714286 0.315789 
0 0.714286 0.315789 0 0.714286 0.315789 0 0.714286 0.315789 
0 0.714286 0.315789 0 0.714286 0.315789 0 0.714286 0.315789 
0 0.714286 0.315789 0 0.714286 0.315789 0 0.785714 0.315789 
0 0.785714 0.315789 0 0.785714 0.315789 0 0.785714 0.315789 
0 0.785714 0.315789 0 0.785714 0.315789 0 0.785714 0.315789 
0 0.785714 0.315789 0 0.785714 0.315789 0 0.785714 0.315789 
[...]
POINT_DATA 3000
FIELD FieldData 2
unknown 1 3000 double
7 7 7 7 7 7 7 7 7 
7 7 7 7 7 7 7 7 7 
7 7 7 7 7 7 7 7 7 
7 7 7 7 7 7 7 7 7 
7 7 7 7 7 7 7 7 7 
7 7 7 7 7 7 7 7 7 
7 7 7 7 7 7 7 7 7 
7 7 7 7 7 7 7 7 7 
7 7 7 7 7 7 7 7 7 
7 7 7 7 7 7 7 7 7 
7 7 7 7 7 7 7 7 7 
7 7 7 7 7 7 7 7 7 
7 7 7 7 7 7 7 7 7 
7 7 7 7 7 7 7 7 7 
7 7 7 7 7 7 7 7 7 
7 7 7 7 7 7 7 7 7 
7 7 7 7 7 7 7 1.0155124484 -0.29701563882 
-0.62200394261 -0.71160767449 -0.73844301814 -0.74696509556 -0.74991043535 -0.75632477733 -1 7 2.189159741 
0.35534085732 -0.27921168256 -0.49344726766 -0.56580286124 -0.59047782347 -0.59929841698 -0.6132768378 -1 7 
2.696224065 0.75534629729 -0.04202205648 -0.35242476051 -0.46971090893 -0.51334616526 -0.52989605294 -0.55015749461 -1 
7 2.9183229195 0.98265160092 0.11422792857 -0.25677212702 -0.40952856745 -0.47080735214 -0.49546879158 -0.52098911872 
-1 7 3.0168258205 1.1064552502 0.21243151448 -0.19204009803 -0.36913660813 -0.44455932304 -0.47654066122 
-0.50646341198 -1 7 3.0610118644 1.17214493 0.27181817659 -0.14923865214 -0.34143072539 -0.42704841849 
-0.46494936276 -0.49845656269 -1 7 3.0810389824 1.206406924 0.30665053706 -0.1217345325 -0.32255253929 
-0.41494161167 -0.457242546 -0.49354520035 -1 7 3.0902024114 1.2240694578 0.32659375788 -0.1045420291 
-0.30993501564 -0.40652920528 -0.4518858791 -0.49026878362 -1 7 3.0944315507 1.2331008021 0.33779508462 
-0.094057323915 -0.30169538222 -0.40075157463 -0.44811298412 -0.4879755204 -1 7 3.0963988975 1.2376922291 
0.34399010085 -0.087798894539 -0.29643790635 -0.39685777068 -0.44547074753 -0.48634285673 -1 7 3.097320721 
1.2400168691 0.34737355748 -0.084131505499 -0.29315504245 -0.39428855642 -0.44364851793 -0.48518397425 -1 7 
3.0977554745 1.2411902501 0.34920217207 -0.082016780922 -0.29114554148 -0.39262931563 -0.44241649655 -0.4843730565 -1 
7 3.0979615084 1.2417804349 0.35018022096 -0.080816744206 -0.28994034607 -0.39158258457 -0.4416037932 -0.48381881497 
-1 7 3.0980578317 1.2420705861 0.3506871378 -0.080162109996 -0.28925060665 -0.39095665253 -0.44109847383 
-0.48346318271 -1 7 3.0980877232 1.2421632446 0.35085383854 -0.079940916882 -0.28901197565 -0.39073583375 
-0.44091754483 -0.48333462931 -1 7 0.87022201244 -0.5039082269 -0.85069114412 -0.94776572048 -0.97716741205 
-0.98657642194 -0.98971496206 -0.99114470213 -1 7 2.0015415779 0.05657028618 -0.62682788379 -0.86025933985 
-0.9397941945 -0.96708726507 -0.97658305906 -0.98077837789 -1 7 2.5068986788 0.43455290009 -0.42935643725 
-0.76914078847 -0.89849363936 -0.94687143427 -0.96485552371 -0.97278187142 -1 7 2.7341500007 0.66101609376 
-0.2831922894 -0.69058976477 -0.85948853894 -0.92755980963 -0.95453084783 -0.96663603394 -1 7 2.8370442076 
0.78858086179 -0.18528486054 -0.63031519443 -0.82647158272 -0.91037758896 -0.94550328104 -0.9617042339 -1 7 
2.8839549969 0.85783530094 -0.12377809854 -0.5875905395 -0.80071353518 -0.89606069572 -0.93780511887 -0.95762880908 -1 
7 2.9054890358 0.89454881261 -0.086815273121 -0.55899437179 -0.78184256216 -0.88480348883 -0.93147998375 -0.95425666274 
-1 7 2.9154404812 0.91370069964 -0.065306044902 -0.54066495288 -0.76868584452 -0.8763825109 -0.9264904948 
-0.95151909248 -1 7 2.9200692269 0.92358005459 -0.053088724737 -0.52930492173 -0.75987172476 -0.87034478618 
-0.92270705924 -0.94936022342 -1 7 2.9222356475 0.92863591654 -0.046277632196 -0.5224505243 -0.75415665348 
-0.86616938161 -0.9199404774 -0.94771162396 -1 7 2.9232556199 0.93120859707 -0.042536061039 -0.51840401523 
-0.75055059806 -0.86337003693 -0.91798266526 -0.94649235293 -1 7 2.9237384743 0.93251219052 -0.040505217407 
-0.51605844984 -0.74832776422 -0.86154366611 -0.91663791674 -0.94561809154 -1 7 2.9239679797 0.93316981642 
-0.039415524632 -0.51472241924 -0.74698821607 -0.86038380282 -0.91574204039 -0.94501166939 -1 7 2.9240755177 
0.9334938426 -0.0388494254 -0.51399167663 -0.74621910743 -0.8596872397 -0.91518160234 -0.94461913156 -1 7 
2.924108931 0.93359744324 -0.038663035137 -0.51374444024 -0.74595260532 -0.8594410268 -0.9149804198 -0.94447674356 -1 
7 0.86638775817 -0.51023088276 -0.85819596076 -0.95577063773 -0.98537244908 -0.9948587059 -0.99801472117 -0.99911776947 
-1 7 1.9947806248 0.044385100661 -0.64197650628 -0.87677915134 -0.95689519376 -0.9844213263 -0.9939768712 
-0.99740217669 -1 7 2.4990447625 0.41950459454 -0.44880985422 -0.79083256898 -0.92120895115 -0.97002335122 
-0.98813745871 -0.99496539708 -1 7 2.7260371995 0.64488069102 -0.30464538437 -0.71495410827 -0.88527674422 
-0.95399285971 -0.98118012784 -0.99199280731 -1 7 2.8289521257 0.77216115637 -0.20751037288 -0.6558960229 
-0.85378409201 -0.93851578161 -0.97394446224 -0.98875794167 -1 7 2.8759413625 0.8414223354 -0.14622170456 
-0.61364894845 -0.82871388524 -0.9250261111 -0.96714950854 -0.98555002983 -1 7 2.8975433077 0.87821530486 
-0.10926571834 -0.5851961338 -0.81011708054 -0.91414103504 -0.96125650855 -0.98260439044 -1 7 2.9075402409 
0.89744335002 -0.087703399367 -0.5668781519 -0.79704693733 -0.90587050045 -0.95646115531 -0.98006778367 -1 7 
2.9121962157 0.90737752413 -0.0754299934 -0.55548864077 -0.78824337365 -0.899882377 -0.95275709579 -0.97799840112 -1 
7 2.9143779472 0.91246827843 -0.068575970409 -0.54859990205 -0.78251366545 -0.89571485319 -0.95001757493 -0.97638621011 
-1 7 2.9154062 0.91506168541 -0.064805618722 -0.54452566068 -0.77888866708 -0.8929088392 -0.94806485049 
-0.97517929286 -1 7 2.9158934179 0.9163770585 -0.062756858114 -0.54216067792 -0.7766497826 -0.89107272274 
-0.94671724133 -0.97430729347 -1 7 2.916125179 0.9170411691 -0.061656550428 -0.54081210569 -0.77529860927 
-0.88990425807 -0.94581661851 -0.97369949691 -1 7 2.9162338445 0.9173686074 -0.061084526457 -0.54007388765 
-0.77452201037 -0.88920152392 -0.94525203518 -0.97330486192 -1 7 2.9162676223 0.91747334408 -0.060896096925 
-0.53982398524 -0.77425273002 -0.888952909 -0.94504911961 -0.97316147927 -1 7 0.86627828446 -0.51043719775 
-0.85846055574 -0.9560648027 -0.98568024994 -0.99517239126 -0.99833002271 -0.99941619599 -1 7 1.9945432143 
0.043907531643 -0.64261219276 -0.87749992913 -0.95765677712 -0.9852010035 -0.99476187542 -0.99814268668 -1 7 
2.4987314191 0.41883873667 -0.4497299616 -0.79190018265 -0.92235178235 -0.97120126654 -0.98932688015 -0.996084876 -1 
7 2.7256891409 0.64411179231 -0.30574019215 -0.71625078262 -0.8866825629 -0.95545230578 -0.98265893939 -0.99338334491 
-1 7 2.8285918163 0.77134535336 -0.20869716936 -0.65732469334 -0.85535017622 -0.94015261473 -0.97560893043 
-0.99032309892 -1 7 2.8755785651 0.84058929967 -0.14745058355 -0.61514570776 -0.8303688865 -0.92676583431 
-0.96892443943 -0.98722007782 -1 7 2.8971813452 0.87737824021 -0.11051074955 -0.58672433817 -0.81181747105 
-0.91593651055 -0.9630934277 -0.98433424506 -1 7 2.9071797596 0.89660704856 -0.088952812488 -0.56841896824 
-0.79876857091 -0.90769433538 -0.95833115517 -0.98183032196 -1 7 2.9118369825 0.90654311684 -0.076679269822 
-0.55703338023 -0.78997392523 -0.90171971493 -0.95464393651 -0.97977814815 -1 7 2.914019568 0.91163558563 
-0.069823854412 -0.55014506497 -0.78424736155 -0.89755813403 -0.95191258726 -0.97817470874 -1 7 2.9150483472 
0.91423021845 -0.066052104685 -0.54607013629 -0.78062307561 -0.89475446168 -0.94996362175 -0.9769720916 -1 7 
2.9155358694 0.9155463736 -0.064002292207 -0.54370431794 -0.77838403398 -0.89291909675 -0.9486176276 -0.97610212643 -1 
7 2.9157677987 0.91621094969 -0.062901288079 -0.54235506969 -0.77703248958 -0.89175074527 -0.94771762243 -0.97549524012 
-1 7 2.9158765532 0.91653864905 -0.062328840403 -0.54161638416 -0.77625553927 -0.8910478961 -0.94715319806 
-0.97510095102 -1 7 2.9159103638 0.9166434886 -0.062140225756 -0.54136624116 -0.77598601366 -0.89079908119 
-0.94695015914 -0.97495752389 -1 7 0.86627493681 -0.51044429964 -0.85847040101 -0.95607627757 -0.98569257797 
-0.99518512432 -0.99834288344 -0.99942824031 -1 7 1.9945348951 0.04388906042 -0.64263852819 -0.87753112425 
-0.95769058656 -0.98523607807 -0.99479736433 -0.99817586231 -1 7 2.4987191715 0.41881022753 -0.44977202769 
-0.79195115345 -0.9224077877 -0.97125980687 -0.98938631108 -0.99614035502 -1 7 2.7256744693 0.64407632857 
-0.30579412946 -0.71631757741 -0.88675700437 -0.95553076393 -0.98273890557 -0.99345794883 -1 7 2.8285758759 
0.7713057561 -0.20875886225 -0.65740253683 -0.85543806812 -0.94024599328 -0.97570448368 -0.99041224275 -1 7 
2.8755620396 0.84054748849 -0.14751689851 -0.61523064461 -0.8304658527 -0.92686958705 -0.96903099435 -0.9873195101 -1 
7 2.8971645747 0.8773353114 -0.11057969466 -0.5868136484 -0.81192033489 -0.91604722269 -0.96320747452 -0.9844406968 
-1 7 2.9071628888 0.8965635517 -0.08902326579 -0.5685109879 -0.79887527576 -0.9078097143 -0.95845028819 
-0.98194153634 -1 7 2.9118200632 0.90649930066 -0.076750647417 -0.55712715998 -0.79008322357 -0.90183831517 
-0.95476660613 -0.97989266053 -1 7 2.914002615 0.91159155702 -0.069895859232 -0.55024007135 -0.78435850672 
-0.89767905708 -0.95203781208 -0.97829158758 -1 7 2.9150313648 0.91418602824 -0.0661245724 -0.54616604812 
-0.78073559376 -0.89487712035 -0.95009075397 -0.97709072448 -1 7 2.9155188607 0.91550205492 -0.064075112884 
-0.54380091273 -0.7784975876 -0.89304306646 -0.94874619891 -0.97622207591 -1 7 2.9157507685 0.91616653295 
-0.062974369858 -0.54245216452 -0.77714680043 -0.89187567507 -0.94784724788 -0.97561615192 -1 7 2.9158595087 
0.91649416925 -0.062402087287 -0.54171379321 -0.77637032533 -0.89117342852 -0.94728348496 -0.97522246575 -1 7 
2.9158933195 0.91659900887 -0.062213474026 -0.541463653 -0.77610080136 -0.89092461038 -0.94708043609 -0.97507902483 -1 
7 0.86627481219 -0.51044460596 -0.85847087635 -0.95607687224 -0.98569323574 -0.99518579992 -0.99834354591 -0.99942883321 
-1 7 1.9945345471 0.043888175925 -0.64263993144 -0.87753290288 -0.9576925664 -0.98523811431 -0.99479935664 
-0.99817763661 -1 7 2.4987185729 0.41880863273 -0.44977464965 -0.79195455416 -0.92241161706 -0.97126375296 
-0.98939015082 -0.99614373831 -1 7 2.7256736244 0.64407397446 -0.3057981413 -0.71632290859 -0.88676308353 
-0.95553704056 -0.98274497024 -0.99346322271 -1 7 2.8285747933 0.77130262058 -0.20876438235 -0.65741004236 
-0.85544673486 -0.9402549628 -0.97571309023 -0.99041962562 -1 7 2.8755607246 0.84054355547 -0.14752401978 
-0.61524053032 -0.83047740926 -0.92688158847 -0.96904244817 -0.98732921583 -1 7 2.8971630324 0.87733057695 
-0.11058847302 -0.58682606203 -0.81193502241 -0.91606254928 -0.96322205938 -0.98445293907 -1 7 2.9071611298 
0.89655803722 -0.089033695866 -0.56852598037 -0.79889322237 -0.90782855612 -0.95846821342 -0.98195648959 -1 7 
2.9118181055 0.90649305925 -0.076762649646 -0.55714466111 -0.79010440573 -0.90186070843 -0.9547879515 -0.97991041124 -1 
7 2.9140004839 0.91158467116 -0.069909282833 -0.55025988801 -0.78438273595 -0.89770485676 -0.95206248925 -0.97831209412 
-1 7 2.9150290897 0.91417859967 -0.066139215151 -0.54618789028 -0.78076254067 -0.89490601411 -0.95011850688 
-0.97711380735 -1 7 2.9155164724 0.91549419373 -0.064090744157 -0.54382442752 -0.77852682003 -0.89307460797 
-0.94877662598 -0.97624742759 -1 7 2.9157482966 0.91615834793 -0.062990752183 -0.54247697063 -0.77717782575 
-0.89190932553 -0.94787983491 -0.97564335709 -1 7 2.9158569822 0.91648577169 -0.062418967372 -0.54173946383 
-0.77640256263 -0.89120851727 -0.94731755638 -0.9752509522 -1 7 2.9158907814 0.91659056759 -0.062230450597 
-0.54148947849 -0.77613323507 -0.89095990477 -0.94711468943 -0.97510764387 -1 7 0.86627475127 -0.51044478808 
-0.85847119303 -0.95607728006 -0.98569366489 -0.99518618965 -0.99834386189 -0.99942905776 -1 7 1.9945343488 
0.043887579703 -0.64264097308 -0.87753424962 -0.95769398815 -0.98523940872 -0.99480040778 -0.99817838389 -1 7 
2.498718128 0.41880727848 -0.4497770437 -0.79195768187 -0.92241494837 -0.97126680747 -0.9893926435 -0.99614551405 -1 
7 2.7256728112 0.6440714619 -0.30580265037 -0.7163288822 -0.88676952552 -0.95554301005 -0.98274988208 -0.99346673949 
-1 7 2.828573502 0.77129856833 -0.20877177517 -0.65741999251 -0.855457623 -0.94026518441 -0.9757215932 
-0.99042576143 -1 7 2.8755588794 0.84053767564 -0.14753492722 -0.61525545523 -0.83049399899 -0.92689738869 
-0.96905575969 -0.98733891671 -1 7 2.8971606033 0.87732272379 -0.11060327755 -0.58684665251 -0.8119582746 
-0.91608502744 -0.96324125529 -0.98446708316 -1 7 2.9071581318 0.89654821812 -0.089052485784 -0.56855252144 
-0.79892365625 -0.90785841218 -0.95849406043 -0.98197575309 -1 7 2.9118145906 0.90648141396 -0.076785236365 
-0.55717702084 -0.79014204399 -0.90189814896 -0.95482079353 -0.97993516387 -1 7 2.9139965264 0.91157143064 
-0.069935267082 -0.55029758687 -0.78442715091 -0.8977496037 -0.95210222213 -0.97834235768 -1 7 2.9150247737 
0.91416404196 -0.066168069037 -0.54623020716 -0.78081295706 -0.89495738072 -0.95016461805 -0.9771492655 -1 7 
2.9155118802 0.91547860399 -0.06412189401 -0.54387052188 -0.77858225493 -0.8931316293 -0.94882829588 -0.97628749033 -1 
7 2.9157435033 0.91614199529 -0.063023631069 -0.54252596614 -0.77723719108 -0.89197085998 -0.94793602045 -0.97568721649 
-1 7 2.9158520571 0.91646891346 -0.062453007523 -0.54179043496 -0.77646464053 -0.89127320541 -0.94737693284 
-0.97529751876 -1 7 2.9158858189 0.91657356828 -0.06226480632 -0.54154096784 -0.77619599359 -0.89102534263 
-0.94717477788 -0.97515477634 -1 7 0.86627455612 -0.51044534461 -0.85847210849 -0.95607839121 -0.98569476444 
-0.99518712621 -0.99834457107 -0.99942952757 -1 7 1.9945337126 0.043885757653 -0.64264398339 -0.87753791849 
-0.9576976326 -0.9852425239 -0.99480277434 -0.99817995611 -1 7 2.4987167077 0.41880316093 -0.44978393064 
-0.79196617355 -0.92242347468 -0.97127416771 -0.98939828529 -0.99614929081 -1 7 2.7256702464 0.644063909 
-0.30581549036 -0.71634496428 -0.88678591259 -0.95555735045 -0.98276101281 -0.99347427088 -1 7 2.8285694992 
0.7712865801 -0.20879252517 -0.65744644571 -0.85548503673 -0.9402895582 -0.97574079246 -0.99043891827 -1 7 
2.8755532718 0.84052059902 -0.14756502759 -0.61529453566 -0.83053522171 -0.92693466421 -0.96908559085 -0.98735964295 -1 
7 2.8971533692 0.87730034866 -0.11064341137 -0.58689969647 -0.81201521717 -0.91613739902 -0.96328384895 -0.98449709746 
-1 7 2.9071493765 0.896520756 -0.08910254047 -0.56861979086 -0.79899708585 -0.90792706157 -0.95855077741 
-0.98201627773 -1 7 2.9118045057 0.90644939401 -0.076844436596 -0.55725779243 -0.79023157689 -0.9019831401 
-0.95489206021 -0.97998675927 -1 7 2.9139853456 0.91153556554 -0.070002395123 -0.55039039646 -0.7845314448 
-0.89784998035 -0.95218753672 -0.97840487597 -1 7 2.9150127348 0.91412510075 -0.06624170412 -0.54633316563 
-0.78093003077 -0.89507142475 -0.95026271829 -0.97722193414 -1 7 2.9154992009 0.91543732054 -0.064200603328 
-0.54398159547 -0.77870980594 -0.89325715265 -0.94893738296 -0.97636905314 -1 7 2.9157303686 0.91609901665 
-0.063106092739 -0.54264317851 -0.77737284879 -0.89210546128 -0.94805397599 -0.97577608449 -1 7 2.9158386269 
0.91642481945 -0.062537979408 -0.5419118255 -0.77660590968 -0.89141419129 -0.94750121713 -0.97539166286 -1 7 
2.9158722929 0.91652911493 -0.062350578083 -0.54166366863 -0.77633898531 -0.89116823626 -0.94730089291 -0.97525039618 -1 
7 0.86627388601 -0.5104471372 -0.85847486672 -0.95608152706 -0.9856976789 -0.99518946488 -0.99834624497 -0.99943058259 
-1 7 1.994531544 0.04387992498 -0.64265300468 -0.87754822376 -0.95770725174 -0.98525027296 -0.99480834058 
-0.99818347523 -1 7 2.4987119601 0.41879020462 -0.44980426028 -0.79198970975 -0.9224457146 -0.97129228473 
-0.98941143103 -0.99615767391 -1 7 2.7256618865 0.64404067245 -0.30585263716 -0.71638874115 -0.88682796881 
-0.95559213787 -0.98278661064 -0.99349079272 -1 7 2.8285568015 0.77125059857 -0.20885122078 -0.65751699296 
-0.85555408994 -0.94034768728 -0.97578426822 -0.99046737898 -1 7 2.8755359545 0.8404706029 -0.14764823786 
-0.61539656587 -0.83063703959 -0.92702196809 -0.96915202865 -0.98740380126 -1 7 2.8971315849 0.87723637152 
-0.11075191871 -0.5870353225 -0.81215314167 -0.91625784531 -0.96337712016 -0.98456005399 -1 7 2.9071236016 
0.89644391185 -0.089235110016 -0.56878845024 -0.79917167189 -0.9080822053 -0.9586729583 -0.98209999606 -1 7 
2.9117753949 0.90636148731 -0.076998361243 -0.55745673112 -0.79044084565 -0.90217211664 -0.95504324473 -0.9800918269 -1 
7 2.9139535995 0.91143868618 -0.070174173295 -0.55061545055 -0.78477155846 -0.89806994833 -0.95236604111 -0.97853054506 
-1 7 2.9149790069 0.91402130634 -0.066427641308 -0.54657955563 -0.78119609681 -0.89531822121 -0.95046551848 
-0.97736635534 -1 7 2.9154640466 0.91532843521 -0.064397247939 -0.54424457933 -0.77899662745 -0.89352599364 
-0.94916066447 -0.9765296345 -1 7 2.9156942321 0.91598655363 -0.063310448225 -0.54291842302 -0.77767540269 
-0.89239143013 -0.94829354648 -0.975949777 -1 7 2.9158018652 0.91631004129 -0.062747424381 -0.54219533113 
-0.77691928074 -0.89171216583 -0.94775241026 -0.97557485055 -1 7 2.9158353161 0.9164135398 -0.0625617727 
-0.54195000191 -0.77665602984 -0.89147024014 -0.94755592624 -0.97543666744 -1 7 0.86627155809 -0.51045292499 
-0.85848313356 -0.95609027439 -0.98570527275 -0.99519517852 -0.99835009481 -0.99943288291 -1 7 1.9945240752 
0.043861229471 -0.6426798755 -0.8775768155 -0.95773219671 -0.9852691251 -0.99482109369 -0.99819112132 -1 7 
2.4986959803 0.41874949215 -0.4498637765 -0.79205402804 -0.92250262165 -0.9713358391 -0.98944123154 -0.99617571502 -1 
7 2.7256345399 0.64396948361 -0.30595895872 -0.71650598009 -0.8869336479 -0.9556744143 -0.98284379002 -0.99352587769 
-1 7 2.8285164869 0.77114331181 -0.20901512582 -0.65770172457 -0.85572408192 -0.94048261549 -0.97587973294 
-0.99052687784 -1 7 2.875482532 0.84032544871 -0.14787492476 -0.61565767703 -0.83088241167 -0.92722065823 
-0.9692952757 -0.98749457424 -1 7 2.8970661256 0.87705518001 -0.11104066853 -0.5873748102 -0.81247866779 
-0.91652664561 -0.96357457034 -0.98468727681 -1 7 2.9070479192 0.89623105812 -0.089580433271 -0.56920205028 
-0.79957571803 -0.90842203064 -0.95892707271 -0.98226638074 -1 7 2.9116915731 0.90612261063 -0.077391852156 
-0.55793571824 -0.79091660897 -0.90257899877 -0.95535255335 -0.98029740882 -1 7 2.9138636415 0.91117960007 
-0.07060634826 -0.55114878006 -0.78530896055 -0.89853635643 -0.95272586556 -0.97877296906 -1 7 2.9148846343 
0.9137472738 -0.066889349247 -0.54715575248 -0.78178371883 -0.89583466699 -0.95086908355 -0.97764151245 -1 7 
2.9153666263 0.91504381779 -0.064880503213 -0.54485303587 -0.77962322166 -0.89408244453 -0.94960020319 -0.97683238008 -1 
7 2.9155947897 0.91569474902 -0.063808741192 -0.54355004832 -0.77833079621 -0.89297827217 -0.94876113818 -0.97627452677 
-1 7 2.9157011723 0.91601370521 -0.063255417823 -0.542842262 -0.77759415081 -0.89232002739 -0.94823981436 
-0.9759154179 -1 7 2.9157341827 0.91611559833 -0.063073221432 -0.54260240463 -0.77733787106 -0.89208561181 
-0.94805037477 -0.97578281988 -1 7 0.86626336972 -0.51047163932 -0.85850772651 -0.956114315 -0.9857246457 
-0.99520877234 -0.99835867628 -0.99943772269 -1 7 1.9944980829 0.043801304715 -0.64275923279 -0.87765490994 
-0.95779549498 -0.9853137678 -0.99484940286 -0.99820714834 -1 7 2.4986418447 0.4186219649 -0.45003609151 
-0.7922266991 -0.92264485664 -0.97143761 -0.98950660255 -0.9962131326 -1 7 2.7255448313 0.64375274666 
-0.30625911367 -0.71681372191 -0.88719252208 -0.95586322238 -0.98296719623 -0.99359758379 -1 7 2.828388481 
0.77082619775 -0.20946555235 -0.65817487501 -0.8561312776 -0.94078597956 -0.97608195173 -0.99064642002 -1 7 
2.8753180023 0.83990839557 -0.14848166793 -0.61631024611 -0.83145691396 -0.92765801479 -0.96959280638 -0.98767366523 -1 
7 2.8968699154 0.87654781527 -0.11179483694 -0.58820376639 -0.81322425073 -0.91710616506 -0.96397674788 -0.98493372993 
-1 7 2.9068262457 0.89564825633 -0.09046290898 -0.57019086527 -0.80048248835 -0.90914050438 -0.95943511282 
-0.98258305814 -1 7 2.9114506747 0.90548076931 -0.078378753803 -0.5590598269 -0.79196506026 -0.90342410142 
-0.95596040149 -0.98068229447 -1 7 2.913608967 0.91049401533 -0.07167354556 -0.55238089651 -0.78647473861 