# vtk DataFile Version 5.1
vtk output
ASCII
DATASET STRUCTURED_GRID
DIMENSIONS 10 15 20
POINTS 3000 float
0 0 0 0 0 0 0 0 0 
0 0 0 0 0 0 0 0 0 
0 0 0 0 0 0 0 0 0 
0 0 0 0 0.0714286 0 0 0.0714286 0 
0 0.0714286 0 0 0.0714286 0 0 0.0714286 0 
0 0.0714286 0 0 0.0714286 0 0 0.0714286 0 
0 0.0714286 0 0 0.0714286 0 0 0.142857 0 
0 0.142857 0 0 0.142857 0 0 0.142857 0 
0 0.142857 0 0 0.142857 0 0 0.142857 0 
0 0.142857 0 0 0.142857 0 0 0.142857 0 
0 0.214286 0 0 0.214286 0 0 0.214286 0 
0 0.214286 0 0 0.214286 0 0 0.214286 0 
0 0.214286 0 0 0.214286 0 0 0.214286 0 
0 0.214286 0 0 0.285714 0 0 0.285714 0 
0 0.285714 0 0 0.285714 0 0 0.285714 0 
0 0.285714 0 0 0.285714 0 0 0.285714 0 
0 0.285714 0 0 0.285714 0 0 0.357143 0 
0 0.357143 0 0 0.357143 0 0 0.357143 0 
0 0.357143 0 0 0.357143 0 0 0.357143 0 
0 0.357143 0 0 0.357143 0 0 0.357143 0 
0 0.428571 0 0 0.428571 0 0 0.428571 0 
0 0.428571 0 0 0.428571 0 0 0.428571 0 
0 0.428571 0 0 0.428571 0 0 0.428571 0 
0 0.428571 0 0 0.5 0 0 0.5 0 
0 0.5 0 0 0.5 0 0 0.5 0 
0 0.5 0 0 0.5 0 0 0.5 0 
0 0.5 0 0 0.5 0 0 0.571429 0 
0 0.571429 0 0 0.571429 0 0 0.571429 0 
0 0.571429 0 0 0.571429 0 0 0.571429 0 
0 0.571429 0 0 0.571429 0 0 0.571429 0 
0 0.642857 0 0 0.642857 0 0 0.642857 0 
0 0.642857 0 0 0.642857 0 0 0.642857 0 
0 0.642857 0 0 0.642857 0 0 0.642857 0 
0 0.642857 0 0 0.714286 0 0 0.714286 0 
0 0.714286 0 0 0.714286 0 0 0.714286 0 
0 0.714286 0 0 0.714286 0 0 0.714286 0 
0 0.714286 0 0 0.714286 0 0 0.785714 0 
0 0.785714 0 0 0.785714 0 0 0.785714 0 
0 0.785714 0 0 0.785714 0 0 0.785714 0 
0 0.785714 0 0 0.785714 0 0 0.785714 0 
0 0.857143 0 0 0.857143 0 0 0.857143 0 
0 0.857143 0 0 0.857143 0 0 0.857143 0 
0 0.857143 0 0 0.857143 0 0 0.857143 0 
0 0.857143 0 0 0.928571 0 0 0.928571 0 
0 0.928571 0 0 0.928571 0 0 0.928571 0 
0 0.928571 0 0 0.928571 0 0 0.928571 0 
0 0.928571 0 0 0.928571 0 0 1 0 
0 1 0 0 1 0 0 1 0 
0 1 0 0 1 0 0 1 0 
0 1 0 0 1 0 0 1 0 
0 0 0.105263 0 0 0.105263 0 0 0.105263 
0 0 0.105263 0 0 0.105263 0 0 0.105263 
0 0 0.105263 0 0 0.105263 0 0 0.105263 
0 0 0.105263 0 0.0714286 0.105263 0 0.0714286 0.105263 
0 0.0714286 0.105263 0 0.0714286 0.105263 0 0.0714286 0.105263 
0 0.0714286 0.105263 0 0.0714286 0.105263 0 0.0714286 0.105263 
0 0.0714286 0.105263 0 0.0714286 0.105263 0 0.142857 0.105263 
0 0.142857 0.105263 0 0.142857 0.105263 0 0.142857 0.105263 
0 0.142857 0.105263 0 0.142857 0.105263 0 0.142857 0.105263 
0 0.142857 0.105263 0 0.142857 0.105263 0 0.142857 0.105263 
0 0.214286 0.105263 0 0.214286 0.105263 0 0.214286 0.105263 
0 0.214286 0.105263 0 0.214286 0.105263 0 0.214286 0.105263 
0 0.214286 0.105263 0 0.214286 0.105263 0 0.214286 0.105263 
0 0.214286 0.105263 0 0.285714 0.105263 0 0.285714 0.105263 
0 0.285714 0.105263 0 0.285714 0.105263 0 0.285714 0.105263 
0 0.285714 0.105263 0 0.285714 0.105263 0 0.285714 0.105263 
0 0.285714 0.105263 0 0.285714 0.105263 0 0.357143 0.105263 
0 0.357143 0.105263 0 0.357143 0.105263 0 0.357143 0.105263 
0 0.357143 0.105263 0 0.357143 0.105263 0 0.357143 0.105263 
0 0.357143 0.105263 0 0.357143 0.105263 0 0.357143 0.105263 
0 0.428571 0.105263 0 0.428571 0.105263 0 0.428571 0.105263 
0 0.428571 0.105263 0 0.428571 0.105263 0 0.428571 0.105263 
0 0.428571 0.105263 0 0.428571 0.105263 0 0.428571 0.105263 
0 0.428571 0.105263 0 0.5 0.105263 0 0.5 0.105263 
0 0.5 0.105263 0 0.5 0.105263 0 0.5 0.105263 
0 0.5 0.105263 0 0.5 0.105263 0 0.5 0.105263 
0 0.5 0.105263 0 0.5 0.105263 0 0.571429 0.105263 
0 0.571429 0.105263 0 0.571429 0.105263 0 0.571429 0.105263 
0 0.571429 0.105263 0 0.571429 0.105263 0 0.571429 0.105263 
0 0.571429 0.105263 0 0.571429 0.105263 0 0.571429 0.105263 
0 0.642857 0.105263 0 0.642857 0.105263 0 0.642857 0.105263 
0 0.642857 0.105263 0 0.642857 0.105263 0 0.642857 0.105263 
0 0.642857 0.105263 0 0.642857 0.105263 0 0.642857 0.105263 
0 0.642857 0.105263 0 0.714286 0.105263 0 0.714286 0.105263 
0 0.714286 0.105263 0 0.714286 0.105263 0 0.714286 0.105263 
0 0.714286 0.105263 0 0.714286 0.105263 0 0.714286 0.105263 
0 0.714286 0.105263 0 0.714286 0.105263 0 0.785714 0.105263 
0 0.785714 0.105263 0 0.785714 0.105263 0 0.785714 0.105263 
0 0.785714 0.105263 0 0.785714 0.105263 0 0.785714 0.105263 
0 0.785714 0.105263 0 0.785714 0.105263 0 0.785714 0.105263 
0 0.857143 0.105263 0 0.857143 0.105263 0 0.857143 0.105263 
0 0.857143 0.105263 0 0.857143 0.105263 0 0.857143 0.105263 
0 0.857143 0.105263 0 0.857143 0.105263 0 0.857143 0.105263 
0 0.857143 0.105263 0 0.928571 0.105263 0 0.928571 0.105263 
0 0.928571 0.105263 0 0.928571 0.105263 0 0.928571 0.105263 
0 0.928571 0.105263 0 0.928571 0.105263 0 0.928571 0.105263 
0 0.928571 0.105263 0 0.928571 0.105263 0 1 0.105263 
0 1 0.105263 0 1 0.105263 0 1 0.105263 
0 1 0.105263 0 1 0.105263 0 1 0.105263 
0 1 0.105263 0 1 0.105263 0 1 0.105263 
0 0 0.210526 0 0 0.210526 0 0 0.210526 
0 0 0.210526 0 0 0.210526 0 0 0.210526 
0 0 0.210526 0 0 0.210526 0 0 0.210526 
0 0 0.210526 0 0.0714286 0.210526 0 0.0714286 0.210526 
0 0.0714286 0.210526 0 0.0714286 0.210526 0 0.0714286 0.210526 
0 0.0714286 0.210526 0 0.0714286 0.210526 0 0.0714286 0.210526 
0 0.0714286 0.210526 0 0.0714286 0.210526 0 0.142857 0.210526 
0 0.142857 0.210526 0 0.142857 0.210526 0 0.142857 0.210526 
0 0.142857 0.210526 0 0.142857 0.210526 0 0.142857 0.210526 
0 0.142857 0.210526 0 0.142857 0.210526 0 0.142857 0.210526 
0 0.214286 0.210526 0 0.214286 0.210526 0 0.214286 0.210526 
0 0.214286 0.210526 0 0.214286 0.210526 0 0.214286 0.210526 
0 0.214286 0.210526 0 0.214286 0.210526 0 0.214286 0.210526 
0 0.214286 0.210526 0 0.285714 0.210526 0 0.285714 0.210526 
0 0.285714 0.210526 0 0.285714 0.210526 0 0.285714 0.210526 
0 0.285714 0.210526 0 0.285714 0.210526 0 0.285714 0.210526 
0 0.285714 0.210526 0 0.285714 0.210526 0 0.357143 0.210526 
0 0.357143 0.210526 0 0.357143 0.210526 0 0.357143 0.210526 
0 0.357143 0.210526 0 0.357143 0.210526 0 0.357143 0.210526 
0 0.357143 0.210526 0 0.357143 0.210526 0 0.357143 0.210526 
0 0.428571 0.210526 0 0.428571 0.210526 0 0.428571 0.210526 
0 0.428571 0.210526 0 0.428571 0.210526 0 0.428571 0.210526 
0 0.428571 0.210526 0 0.428571 0.210526 0 0.428571 0.210526 
0 0.428571 0.210526 0 0.5 0.210526 0 0.5 0.210526 
0 0.5 0.210526 0 0.5 0.210526 0 0.5 0.210526 
0 0.5 0.210526 0 0.5 0.210526 0 0.5 0.210526 
0 0.5 0.210526 0 0.5 0.210526 0 0.571429 0.210526 
0 0.571429 0.210526 0 0.571429 0.210526 0 0.571429 0.210526 
0 0.571429 0.210526 0 0.571429 0.210526 0 0.571429 0.210526 
0 0.571429 0.210526 0 0.571429 0.210526 0 0.571429 0.210526 
0 0.642857 0.210526 0 0.642857 0.210526 0 0.642857 0.210526 
0 0.642857 0.210526 0 0.642857 0.210526 0 0.642857 0.210526 
0 0.642857 0.210526 0 0.642857 0.210526 0 0.642857 0.210526 
0 0.642857 0.210526 0 0.714286 0.210526 0 0.714286 0.210526 
0 0.714286 0.210526 0 0.714286 0.210526 0 0.714286 0.210526 
0 0.714286 0.210526 0 0.714286 0.210526 0 0.714286 0.210526 
0 0.714286 0.210526 0 0.714286 0.210526 0 0.785714 0.210526 
0 0.785714 0.210526 0 0.785714 0.210526 0 0.785714 0.210526 
0 0.785714 0.210526 0 0.785714 0.210526 0 0.785714 0.210526 
0 0.785714 0.210526 0 0.785714 0.210526 0 0.785714 0.210526 
0 0.857143 0.210526 0 0.857143 0.210526 0 0.857143 0.210526 
0 0.857143 0.210526 0 0.857143 0.210526 0 0.857143 0.210526 
0 0.857143 0.210526 0 0.857143 0.210526 0 0.857143 0.210526 
0 0.857143 0.210526 0 0.928571 0.210526 0 0.928571 0.210526 
0 0.928571 0.210526 0 0.928571 0.210526 0 0.928571 0.210526 
0 0.928571 0.210526 0 0.928571 0.210526 0 0.928571 0.210526 
0 0.928571 0.210526 0 0.928571 0.210526 0 1 0.210526 
0 1 0.210526 0 1 0.210526 0 1 0.210526 
0 1 0.210526 0 1 0.210526 0 1 0.210526 
0 1 0.210526 0 1 0.210526 0 1 0.210526 
0 0 0.315789 0 0 0.315789 0 0 0.315789 
0 0 0.315789 0 0 0.315789 0 0 0.315789 
0 0 0.315789 0 0 0.315789 0 0 0.315789 
0 0 0.315789 0 0.0714286 0.315789 0 0.0714286 0.315789 
0 0.0714286 0.315789 0 0.0714286 0.315789 0 0.0714286 0.315789 
0 0.0714286 0.315789 0 0.0714286 0.315789 0 0.0714286 0.315789 
0 0.0714286 0.315789 0 0.0714286 0.315789 0 0.142857 0.315789 
0 0.142857 0.315789 0 0.142857 0.315789 0 0.142857 0.315789 
0 0.142857 0.315789 0 0.142857 0.315789 0 0.142857 0.315789 
0 0.142857 0.315789 0 0.142857 0.315789 0 0.142857 0.315789 
0 0.214286 0.315789 0 0.214286 0.315789 0 0.214286 0.315789 
0 0.214286 0.315789 0 0.214286 0.315789 0 0.214286 0.315789 
0 0.214286 0.315789 0 0.214286 0.315789 0 0.214286 0.315789 
0 0.214286 0.315789 0 0.285714 0.315789 0 0.285714 0.315789 
0 0.285714 0.315789 0 0.285714 0.315789 0 0.285714 0.315789 
0 0.285714 0.315789 0 0.285714 0.315789 0 0.285714 0.315789 
0 0.285714 0.315789 0 0.285714 0.315789 0 0.357143 0.315789 
0 0.357143 0.315789 0 0.357143 0.315789 0 0.357143 0.315789 
0 0.357143 0.315789 0 0.357143 0.315789 0 0.357143 0.315789 
0 0.357143 0.315789 0 0.357143 0.315789 0 0.357143 0.315789 
0 0.428571 0.315789 0 0.428571 0.315789 0 0.428571 0.315789 
0 0.428571 0.315789 0 0.428571 0.315789 0 0.428571 0.315789 
0 0.428571 0.315789 0 0.428571 0.315789 0 0.428571 0.315789 
0 0.428571 0.315789 0 0.5 0.315789 0 0.5 0.315789 
0 0.5 0.315789 0 0.5 0.315789 0 0.5 0.315789 
0 0.5 0.315789 0 0.5 0.315789 0 0.5 0.315789 
0 0.5 0.315789 0 0.5 0.315789 0 0.571429 0.315789 
0 0.571429 0.315789 0 0.571429 0.315789 0 0.571429 0.315789 
0 0.571429 0.315789 0 0.571429 0.315789 0 0.571429 0.315789 
0 0.571429 0.315789 0 0.571429 0.315789 0 0.571429 0.315789 
0 0.642857 0.315789 0 0.642857 0.315789 0 0.642857 0.315789 
0 0.642857 0.315789 0 0.642857 0.315789 0 0.642857 0.315789 
0 0.642857 0.315789 0 0.642857 0.315789 0 0.642857 0.315789 
0 0.642857 0.315789 0 0.714286 0.315789 0 0.714286 0.315789 
0 0.714286 0.315789 0 0.714286 0.315789 0 0.714286 0.315789 
0 0.714286 0.315789 0 0.714286 0.315789 0 0.714286 0.315789 
0 0.714286 0.315789 0 0.714286 0.315789 0 0.785714 0.315789 
0 0.785714 0.315789 0 0.785714 0.315789 0 0.785714 0.315789 
0 0.785714 0.315789 0 0.785714 0.315789 0 0.785714 0.315789 
0 0.785714 0.315789 0 0.785714 0.315789 0 0.785714 0.315789 
[...]
POINT_DATA 3000
FIELD FieldData 4
unknown 1 3000 double
7 7 7 7 7 7 7 7 7 
7 7 7 7 7 7 7 7 7 
7 7 7 7 7 7 7 7 7 
7 7 7 7 7 7 7 7 7 
7 7 7 7 7 7 7 7 7 
7 7 7 7 7 7 7 7 7 
7 7 7 7 7 7 7 7 7 
7 7 7 7 7 7 7 7 7 
7 7 7 7 7 7 7 7 7 
7 7 7 7 7 7 7 7 7 
7 7 7 7 7 7 7 7 7 
7 7 7 7 7 7 7 7 7 
7 7 7 7 7 7 7 7 7 
7 7 7 7 7 7 7 7 7 
7 7 7 7 7 7 7 7 7 
7 7 7 7 7 7 7 7 7 
7 7 7 7 7 7 7 1.6575285975 0.15547423555 
-0.34658673526 -0.53662639019 -0.61372613126 -0.64603248934 -0.66001112846 -0.67504071559 -1 7 3.6002548336 
1.4996937212 0.45386900267 -0.032183315624 -0.25137587267 -0.34858674236 -0.39190097584 -0.43078936612 -1 7 
4.6670804237 2.5413527498 1.1798217544 0.43057832026 0.050938707314 -0.13193182421 -0.21817589317 -0.2856423814 -1 
7 5.2518305039 3.2726658274 1.7758311101 0.8401438897 0.31661600865 0.043915822711 -0.09267060532 -0.19184001139 
-1 7 5.5714683151 3.7562230623 2.2291664683 1.1820525673 0.54790018224 0.19449893493 0.0072764569999 
-0.12441931053 -1 7 5.7456840181 4.0631745578 2.5545268597 1.4515958361 0.74199064638 0.32397234935 
0.091341502236 -0.071220648909 -1 7 5.8403799947 4.2523082764 2.7777750658 1.6537347228 0.89791080495 
0.43273733578 0.16292052827 -0.026899462798 -1 7 5.8917276448 4.3662320206 2.9256090503 1.7990628111 
1.0179879346 0.52106917494 0.22300849465 0.010607471424 -1 7 5.9195117666 4.4336396266 3.0207381691 
1.8999117365 1.1070061337 0.59028749197 0.27213062074 0.042045062463 -1 7 5.9345187673 4.4729554395 
3.0805306572 1.9678383744 1.1708266251 0.64271262335 0.31108116653 0.06781580895 -1 7 5.9426120829 
4.4956183264 3.117384693 2.0124465203 1.2152646027 0.68120219385 0.34103707445 0.088374379407 -1 7 
5.9469706512 4.5085530651 3.1397250665 2.0411069444 1.2454191275 0.70867135504 0.36340965208 0.10431125936 -1 
7 5.9493113049 4.5158605321 3.1530469591 2.0591284185 1.2653610564 0.72771422143 0.37960246692 0.11626831977 
-1 7 5.9505367049 4.5198518035 3.1606661676 2.0699161232 1.2778293709 0.74011587268 0.39054962501 
0.12460829059 -1 7 5.9509460547 4.5212179081 3.1633438397 2.0738069169 1.2824376509 0.74480423075 
0.39477339984 0.12788055456 -1 7 1.5009402881 -0.086360910662 -0.62829253532 -0.83646293075 -0.92171772488 
-0.95764702781 -0.97298073873 -0.98038066756 -1 7 3.4074243282 1.147390425 0.0069348930689 -0.52822510867 
-0.77119901898 -0.8794427024 -0.9271443303 -0.95019901018 -1 7 4.4912983361 2.1773907927 0.68157114976 
-0.14719628571 -0.56922259736 -0.77320872154 -0.86860931549 -0.91588049576 -1 7 5.1006843616 2.9306298671 
1.2779108555 0.23938206092 -0.34393575622 -0.64860036918 -0.80019461548 -0.87814268117 -1 7 5.4400996811 
3.4415397764 1.750106073 0.58517568327 -0.12260525142 -0.51791957643 -0.72621122835 -0.8378155745 -1 7 
5.6276978006 3.7714340277 2.0972788334 0.86837221101 0.075425994438 -0.39260330584 -0.65184953715 -0.79652649509 -1 
7 5.7307420396 3.9771398874 2.3392085338 1.0856019145 0.24032440589 -0.28085013622 -0.58189011639 -0.75633521199 
-1 7 5.7870603708 4.1021102648 2.501088627 1.2440078801 0.37003594677 -0.1869641214 -0.51978542768 
-0.71916309611 -1 7 5.817717973 4.1765191846 2.6060132868 1.3549583521 0.46746689678 -0.11190652759 
-0.46736205999 -0.68639576252 -1 7 5.8343533458 4.2201216178 2.6723048817 1.430162436 0.5379125117 
-0.054355539579 -0.42499912482 -0.6587434241 -1 7 5.8433566091 4.2453440115 2.7133192822 1.4797683762 
0.58724122832 -0.011770591834 -0.39203966682 -0.63630170663 -1 7 5.8482184625 4.259778127 2.7382512051 
1.5117405764 0.6208442013 0.018777809299 -0.36724394415 -0.61872251017 -1 7 5.8508348931 4.2679493082 
2.7531494905 1.5318903551 0.64312654864 0.040028113081 -0.34921320693 -0.60544769786 -1 7 5.8522068203 
4.2724190351 2.7616830857 1.5439713091 0.65708348239 0.053898212367 -0.33698786361 -0.59615239102 -1 7 
5.8526655025 4.273950111 2.7646844237 1.5483320153 0.6622465015 0.059147193562 -0.33226465913 -0.59249900978 -1 
7 1.4957912312 -0.095799052858 -0.64037478933 -0.8499868922 -0.93597458444 -0.97225792936 -0.98772569832 -0.99446968171 
-1 7 3.3981175669 1.1282669343 -0.019148781493 -0.55842546231 -0.80359633544 -0.91293451362 -0.96107105956 
-0.98248575616 -1 7 4.4806752004 2.1533989767 0.64674444853 -0.18910420323 -0.6152050681 -0.82134228691 
-0.91766935965 -0.96250199978 -1 7 5.0902123343 2.9052152684 1.2390168333 0.19086401942 -0.39841046612 
-0.7064166659 -0.85956626454 -0.93460776875 -1 7 5.4302638587 3.4164369241 1.7100822102 0.53370402611 
-0.18162721634 -0.58142117787 -0.79194463834 -0.90047705638 -1 7 5.6185161359 3.7472458419 2.0575798205 
0.81609939177 0.014416653645 -0.45905365137 -0.72117100059 -0.86281918288 -1 7 5.7220750563 3.9539025055 
2.3003573741 1.0335819777 0.17877591736 -0.34857518275 -0.65303230358 -0.82460323464 -1 7 5.7787513321 
4.0796465443 2.4631311924 1.1926297797 0.30865202569 -0.25504201236 -0.5917098456 -0.78840592624 -1 7 
5.8096405717 4.1546144158 2.5688029499 1.3042672548 0.40651296457 -0.17989177287 -0.53950867499 -0.75604615265 -1 
7 5.826418927 4.1985925795 2.635651128 1.3800582659 0.47742672204 -0.12207690115 -0.49709892361 -0.72850321326 
-1 7 5.8355075614 4.2240554631 2.6770516371 1.4301121541 0.52716263055 -0.07919900796 -0.46398797384 
-0.70603067549 -1 7 5.8404191417 4.2386380809 2.7022384066 1.4624028468 0.56108215512 -0.04839206474 
-0.43902104921 -0.68836764121 -1 7 5.8430639386 4.2468982876 2.7172983595 1.4827673962 0.58359299406 
-0.026938874023 -0.42083846156 -0.67500086132 -1 7 5.8444513929 4.2514187694 2.7259284975 1.4949830459 
0.59770088518 -0.012926646531 -0.40849862111 -0.66562903336 -1 7 5.844915387 4.2529676128 2.7289645239 
1.4993934745 0.60292120139 -0.0076220873454 -0.40372906778 -0.66194337797 -1 7 1.4956045349 -0.096195146395 
-0.64093094676 -0.85064512565 -0.93669116016 -0.97300530327 -0.98848570114 -0.99518646695 -1 7 3.3976932204 
1.1272985432 -0.020568902208 -0.56014865917 -0.80549845991 -0.91493319002 -0.96311060983 -0.98440596916 -1 7 
4.480101874 2.1519937458 0.64457711825 -0.19182318565 -0.61826952623 -0.82460207193 -0.92101723908 -0.96565356347 -1 
7 5.0895762082 2.903562228 1.2363488243 0.18740606852 -0.40239419953 -0.71071335325 -0.86401368206 -0.93880077659 
-1 7 5.4296178794 3.4146825495 1.7071429275 0.52978319573 -0.1862386863 -0.58646445018 -0.79720876618 
-0.90545368118 -1 7 5.6178840076 3.7454756272 2.0545285568 0.81193209517 0.0094258970928 -0.46458235903 
-0.7269895955 -0.86833891295 -1 7 5.7214629752 3.9521548133 2.2972842053 1.0293087188 0.17358232845 
-0.35439286586 -0.65920134596 -0.83047669329 -1 7 5.7781574411 4.0779318647 2.4600768602 1.1883282391 
0.30336494928 -0.26101802422 -0.59808779401 -0.7944991598 -1 7 5.8090604761 4.1529300654 2.565779417 
1.2999729022 0.40119186799 -0.18594788642 -0.54600584952 -0.76227182177 -1 7 5.8258482643 4.1969314331 
2.6326565094 1.3757823691 0.47209913284 -0.12817099134 -0.50366299198 -0.73480820651 -1 7 5.8349428932 
4.2224102146 2.6740791131 1.4258542724 0.52183815408 -0.085311097948 -0.4705908043 -0.71238468382 -1 7 
5.8398580603 4.237002852 2.6992807114 1.458158249 0.55576180773 -0.054514245025 -0.44564869874 -0.69475425583 -1 
7 5.8425048837 4.245268911 2.7143495826 1.4785308626 0.57827470304 -0.033068775739 -0.42748427087 -0.68141121987 
-1 7 5.8438933989 4.2497925077 2.7229844607 1.4907504991 0.59238252628 -0.019063222938 -0.41515822825 
-0.67205690475 -1 7 5.8443577437 4.2513423898 2.7260220625 1.4951621794 0.59760254214 -0.013761494652 
-0.41039425088 -0.66837824332 -1 7 1.4955971946 -0.09621278291 -0.64095802242 -0.85067916863 -0.93672965836 
-0.97304631614 -0.98852774743 -0.99522573915 -1 7 3.3976740563 1.1272503473 -0.020645099429 -0.56024622162 
-0.80560998965 -0.91505272056 -0.96323348791 -0.98452064958 -1 7 4.4800722766 2.1519150565 0.64444735021 
-0.19199434154 -0.61846902184 -0.82481836033 -0.92124082416 -0.96586217603 -1 7 5.0895394829 2.9034595768 
1.2361723866 0.18716599782 -0.4026801065 -0.71102747226 -0.86434053192 -0.93910582728 -1 7 5.429577003 
3.4145634364 1.7069304727 0.52948548307 -0.18660084531 -0.58686774147 -0.79763120983 -0.90584814519 -1 7 
5.6178408713 3.7453457098 2.0542894337 0.81158809731 0.0089991367962 -0.46506367235 -0.72749691428 -0.86881280573 -1 
7 5.7214184855 3.9520173862 2.2970246681 1.0289268504 0.17310027106 -0.35494281756 -0.65978421199 -0.83102120466 
-1 7 5.7781118876 4.0777884364 2.4598003414 1.1879136423 0.30283365092 -0.26163030473 -0.59873983594 
-0.79510821504 -1 7 5.8090138665 4.1527811645 2.5654875751 1.299528433 0.40061491636 -0.18661869997 
-0.54672328375 -0.76294186353 -1 7 5.82580054 4.1967772397 2.632350252 1.375309836 0.47147894473 
-0.12889777872 -0.50444340808 -0.73553714081 -1 7 5.8348940332 4.222250926 2.6737592856 1.4253553898 
0.52117710403 -0.086091297027 -0.47143186649 -0.71317066907 -1 7 5.8398081129 4.2368388296 2.6989484297 
1.457635163 0.55506292536 -0.05534443722 -0.44654715781 -0.69559470895 -1 7 5.8424539648 4.2451007185 
2.7140063708 1.4779864385 0.57754214856 -0.033943994105 -0.42843505739 -0.68230183494 -1 7 5.8438417075 
4.2496210152 2.7226325906 1.4901890686 0.59162288451 -0.019975058166 -0.4161520425 -0.6729891525 -1 7 
5.8443057341 4.2511695397 2.7256666261 1.4945937212 0.59683165666 -0.014688606231 -0.41140610704 -0.66932802178 -1 
7 1.4955966557 -0.096214386932 -0.64096094901 -0.85068329006 -0.93673455539 -0.97305147533 -0.98853271733 -0.99522996114 
-1 7 3.3976724143 1.1272453409 -0.020654380169 -0.56025941918 -0.80562575451 -0.91506936159 -0.96324950298 
-0.98453420741 -1 7 4.4800689685 2.1519045779 0.64442736068 -0.19202332213 -0.618504041 -0.82485550282 
-0.92127651674 -0.96589218309 -1 7 5.089533924 2.9034413458 1.2361366148 0.18711306522 -0.40274492574 
-0.71109668021 -0.86440703839 -0.93916139928 -1 7 5.4295685835 3.4145350374 1.7068733635 0.52939933207 
-0.18670781418 -0.58698291174 -0.79774216038 -0.90594054629 -1 7 5.6178290163 3.7453048283 2.0542054859 
0.81145919493 0.0088368308973 -0.46524015664 -0.72766781211 -0.86895513841 -1 7 5.7214027465 3.9519621432 
2.2969091754 1.0287465951 0.17287012166 -0.35519584602 -0.66003106317 -0.83122743959 -1 7 5.7780920202 
4.0777176835 2.459650089 1.1876755799 0.30252551424 -0.26197306278 -0.59907728093 -0.79539169288 -1 7 
5.808989863 4.1526946337 2.5653012642 1.2992291197 0.4002223672 -0.18706059376 -0.54716272947 -0.7633136542 -1 
7 5.8257726141 4.1966755225 2.6321285618 1.3749491506 0.47099998576 -0.12944330589 -0.50499160963 -0.73600465252 
-1 7 5.8348625696 4.2221353121 2.6735046083 1.4249362862 0.52061412444 -0.086739739896 -0.47209026369 
-0.71373682305 -1 7 5.8397736031 4.2367110827 2.6986644253 1.4571630671 0.55442212341 -0.056090206492 
-0.44731186615 -0.69625764595 -1 7 5.8424169561 4.2449628892 2.7136975778 1.4774686932 0.57683297214 
-0.034776978256 -0.42929685676 -0.68305458882 -1 7 5.8438028312 4.2494755681 2.7223047991 1.489635774 
0.59085957278 -0.020878245303 -0.41709324256 -0.67381634235 -1 7 5.8442661056 4.2510210085 2.72533109 
1.4940258259 0.59604593885 -0.015621070102 -0.41238065603 -0.67018665967 -1 7 1.4955959137 -0.096216794937 
-0.64096552205 -0.85068971888 -0.93674191647 -0.9730587117 -0.98853901743 -0.99523469472 -1 7 3.3976699657 
1.1272373695 -0.020669567765 -0.56028083502 -0.80565034411 -0.91509359496 -0.96327064682 -0.98455012058 -1 7 
4.4800632986 2.1518859589 0.64439156412 -0.19207423816 -0.61856297472 -0.82491400877 -0.92132789418 -0.96593104865 -1 
7 5.0895231555 2.9034055814 1.2360670084 0.18701286406 -0.40286222767 -0.71121435839 -0.86451135987 -0.93924092506 
-1 7 5.4295507771 3.4144751524 1.7067551754 0.52922680124 -0.18691252353 -0.58719089306 -0.79792869081 
-0.90608412223 -1 7 5.6178025174 3.745214558 2.0540247034 0.81119131615 0.0085143111991 -0.46557244254 
-0.72796973877 -0.86919011302 -1 7 5.7213664613 3.9518369786 2.2966548311 1.0283639643 0.1724024626 
-0.35568474635 -0.66048147006 -0.83158213422 -1 7 5.7780455479 4.0775554819 2.4593158417 1.1871652612 
0.30189243706 -0.26264465185 -0.59970472955 -0.79589183181 -1 7 5.8089334764 4.1524957022 2.5648859533 
1.2985861047 0.39941318635 -0.18793130826 -0.54798751972 -0.76397904858 -1 7 5.8257071255 4.1964422573 
2.6316357781 1.3741762751 0.47001428188 -0.13051838275 -0.50602354903 -0.7368468944 -1 7 5.8347891424 
4.2218715835 2.6729415975 1.4240429397 0.51946075123 -0.088013513379 -0.47332817274 -0.71475830945 -1 7 
5.8396935633 4.236421566 2.6980407344 1.4561632736 0.55311716064 -0.057547765912 -0.44874451701 -0.69745181505 -1 
7 5.842331661 4.244652569 2.7130239917 1.4763795151 0.57539793492 -0.036395674034 -0.43090382797 -0.68440608596 
-1 7 5.8437137107 4.2491499156 2.7215938438 1.4884784554 0.58932355161 -0.022624327051 -0.41884043568 
-0.67529626387 -1 7 5.8441754604 4.2506892064 2.7246050269 1.4928407203 0.59446837531 -0.017420005414 
-0.41418649833 -0.67172065572 -1 7 1.4955937229 -0.096223583202 -0.64097775709 -0.85070601853 -0.93675960601 
-0.97307520596 -0.98855265159 -0.99524446578 -1 7 3.3976627613 1.1272149701 -0.020710082652 -0.56033499196 
-0.80570930458 -0.91514873179 -0.96331634454 -0.98458294445 -1 7 4.4800468039 2.1518341791 0.64429695539 
-0.19220194322 -0.61870328426 -0.82504633614 -0.92143842342 -0.96601096534 -1 7 5.0894923504 2.9033076337 
1.2358855709 0.18676463745 -0.40313846098 -0.71147801253 -0.86473403127 -0.93940345127 -1 7 5.4295008559 
3.4143141546 1.7064522633 0.52880589483 -0.18738798276 -0.58765118576 -0.79832261956 -0.90637493984 -1 7 
5.6177298206 3.7449767041 2.0535698914 0.81054887504 0.0077768588003 -0.46629746287 -0.72859932115 -0.86966079036 -1 
7 5.7212690672 3.9515138664 2.2960270831 1.0274625489 0.17135072495 -0.35673528272 -0.66140762592 -0.83228371835 
-1 7 5.7779234051 4.0771450204 2.4585062895 1.1859842423 0.30049234018 -0.26406527059 -0.60097625 
-0.79686791042 -1 7 5.8087881433 4.1520016316 2.5638979342 1.2971232712 0.39765261474 -0.1897448101 
-0.54963471509 -0.76526002911 -1 7 5.8255412829 4.1958727292 2.6304827044 1.3724459701 0.4679025611 
-0.13272448722 -0.50805540726 -0.73844668477 -1 7 5.8346060519 4.2212373698 2.6716436626 1.4220718987 
0.51702481079 -0.090591346693 -0.47573313725 -0.71667381708 -1 7 5.8394966049 4.2357343974 2.6966215157 
1.4539857272 0.55039613009 -0.060460579456 -0.45149372687 -0.69966457798 -1 7 5.8421240415 4.2439240102 
2.7115079693 1.4740333422 0.57243860338 -0.039595063362 -0.4339541865 -0.68688390263 -1 7 5.8434985485 
4.2483916616 2.7200071274 1.486006731 0.58618324114 -0.026045671095 -0.4221284601 -0.67798662483 -1 7 
5.8439573286 4.2499191776 2.7229900235 1.4903182646 0.59125421119 -0.020932799925 -0.41757333632 -0.67450005439 -1 
7 1.4955871283 -0.096242921592 -0.64101060557 -0.85074727155 -0.93680188788 -0.97311252763 -0.98858193924 -0.99526451868 
-1 7 3.3976412032 1.1271514875 -0.020818366165 -0.56047151327 -0.80584973421 -0.91527309476 -0.96341422811 
-0.9846501342 -1 7 4.4799982653 2.1516895755 0.64404736415 -0.19252017234 -0.61903404076 -0.82534205714 
-0.92167321065 -0.96617332454 -1 7 5.0894036896 2.903039479 1.2354153578 0.18615590123 -0.40378029556 
-0.71205955873 -0.86520144561 -0.93973008617 -1 7 5.429360672 3.4138831548 1.7056830836 0.52779270462 
-0.18847410647 -0.58865077836 -0.79913780276 -0.90695178937 -1 7 5.6175307422 3.7443545512 2.0524394537 
0.80903271352 0.0061228169456 -0.46784546143 -0.72988183644 -0.87058088958 -1 7 5.721008757 3.9506877096 
2.2944996804 1.025377214 0.16903544371 -0.3589393558 -0.6632636054 -0.83363432329 -1 7 5.777604254 
4.0761178172 2.4565762577 1.1833043946 0.2974662044 -0.26699442909 -0.60348276758 -0.79871799453 -1 7 
5.8084160849 4.1507892551 2.5615865399 1.2938637687 0.39391324258 -0.19342195516 -0.55283022182 -0.76765128379 -1 
7 5.8251242808 4.194499431 2.6278308325 1.3686541228 0.46348941708 -0.13712795246 -0.51193774314 -0.74138979466 
-1 7 5.834152705 4.2197311205 2.6687031285 1.4178161915 0.51200816291 -0.095663231521 -0.48026414877 
-0.72014993107 -1 7 5.8390151182 4.2341231259 2.6934472812 1.4493444623 0.54486428154 -0.066118313264 
-0.45660785352 -0.70363040091 -1 7 5.8416216813 4.2422333847 2.7081530554 1.4690865249 0.56648803759 
-0.045740956123 -0.43956598012 -0.6912763713 -1 7 5.8429818656 4.2466457304 2.7165238032 1.4808381144 
0.5799221145 -0.032561405349 -0.42812504294 -0.68271474014 -1 7 5.8434350914 4.2481516214 2.719455971 
1.4850610565 0.5848676597 -0.027599515269 -0.42372859921 -0.67936776224 -1 7 1.4955672043 -0.096297770198 
-0.64109781168 -0.85084992461 -0.93690077197 -0.97319481318 -0.98864302087 -0.99530434676 -1 7 3.3975765281 
1.1269725154 -0.021104348531 -0.5608096951 -0.80617684773 -0.91554631554 -0.96361772481 -0.98478320164 -1 7 
4.4798554528 2.1512887476 0.64339786129 -0.19329826907 -0.61979565232 -0.82598508545 -0.92215683448 -0.96649220071 -1 
7 5.0891493 2.902312588 1.2342158236 0.18469372542 -0.40523477574 -0.71330599077 -0.86615175033 -0.94036402706 
-1 7 5.428969249 3.4127432821 1.7037642436 0.52540799838 -0.19089021294 -0.59075722817 -0.80076965106 
-0.90805552535 -1 7 5.6169897449 3.7427497366 2.0496836376 0.80553933164 0.0025150867054 -0.47104865171 
-0.73240621487 -0.87231405515 -1 7 5.7203192872 3.9486072737 2.2908590372 1.0206727886 0.16408446483 
-0.36341621287 -0.66685372088 -0.83613731833 -1 7 5.7767784822 4.0735880018 2.452072299 1.1773793885 
0.29111798049 -0.27283673657 -0.60824831172 -0.80209116957 -1 7 5.8074731063 4.1478623531 2.5562956722 
1.286790283 0.38620860556 -0.20063031923 -0.5588057123 -0.77194260334 -1 7 5.8240859613 4.1912411493 
2.6218634269 1.3605623017 0.45454469628 -0.14562289327 -0.51908548458 -0.74659276468 -1 7 5.83304045 
4.2162096256 2.6621828762 1.4088670635 0.50198788212 -0.10530703323 -0.48848822552 -0.72621043217 -1 7 
5.8378478818 4.2304014722 2.6864951432 1.4397062073 0.53395419973 -0.076739818685 -0.46577310514 -0.7104585845 -1 
7 5.8404151857 4.238365844 2.7008781297 1.4589192103 0.55487600641 -0.057154707169 -0.44951375633 -0.69875716874 
-1 7 5.8417493078 4.2426796396 2.709026083 1.4702971091 0.56780255617 -0.044561283383 -0.43866461025 
-0.69069845659 -1 7 5.8421925989 4.244147608 2.7118715175 1.4743727681 0.57254558336 -0.039836093747 
-0.43450986447 -0.68755884057 -1 7 1.4955067678 -0.096452431097 -0.64132613783 -0.8511001761 -0.93712607177 
-0.97337071898 -0.98876602864 -0.99538044688 -1 7 3.3973820183 1.1264714421 -0.021848611186 -0.56162986269 
-0.80691879395 -0.916128078 -0.96402609048 -0.98503665555 -1 7 4.4794356395 2.150188313 0.64173593299 
-0.1951576677 -0.62150082987 -0.82733862007 -0.92311745248 -0.96709400986 -1 7 5.0884225438 2.9003665744 
1.2312140873 0.18126812567 -0.40843407649 -0.71588827322 -0.86801247823 -0.94154503287 -1 7 5.4278841269 
3.4097732664 1.6990787574 0.51994387094 -0.19609842239 -0.59504161067 -0.80391157983 -0.91008033722 -1 7 
5.6155331088 3.7386790907 2.0431189543 0.79771575867 -0.0050992468407 -0.47743766391 -0.73717952649 -0.87544081101 -1 
7 5.7185122365 3.9434618286 2.2823898754 1.0103691869 0.1538514773 -0.37217204314 -0.67351843872 -0.84057580987 
-1 7 5.7746653991 4.0674725242 2.4418213758 1.1646707712 0.27825600488 -0.28404833347 -0.61693712951 
-0.80797161519 -1 7 5.8051092884 4.1409272211 2.5444863798 1.2719034531 0.37088305428 -0.21421961975 
-0.56951572286 -0.77930213239 -1 7 5.821527482 4.1836510642 2.6087672882 1.3438151044 0.43704398815 
-0.16138004563 -0.5316953874 -0.75538005573 -1 7 5.8303376385 4.2081207154 2.6480755765 1.3906099143 
0.48266395061 -0.12293914605 -0.50279124176 -0.73630369282 -1 7 5.8350422573 4.221948265 2.6716272668 
1.4202775756 0.51317117345 -0.095918694103 -0.48151409693 -0.72168944962 -1 7 5.8375390721 4.2296570992 
2.6854618741 1.4386209902 0.5329776874 -0.077550410926 -0.46641765332 -0.71093030827 -1 7 5.8388280305 
4.2338039434 2.6932429645 1.4494023143 0.54511946437 -0.065834734192 -0.45642748964 -0.70358195817 -1 7 
5.8392544357 4.2352088169 2.6959479337 1.4532463948 0.54955365897 -0.061459572499 -0.45261958826 -0.70073222251 -1 
7 1.495322577 -0.096885338976 -0.64191387496 -0.85169529362 -0.93762358256 -0.9737331924 -0.98900369186 -0.99551937426 