# vtk DataFile Version 5.1
vtk output
ASCII
DATASET STRUCTURED_GRID
DIMENSIONS 10 15 20
POINTS 3000 float
0 0 0 0 0 0 0 0 0 
0 0 0 0 0 0 0 0 0 
0 0 0 0 0 0 0 0 0 
0 0 0 0 0.0714286 0 0 0.0714286 0 
0 0.0714286 0 0 0.0714286 0 0 0.0714286 0 
0 0.0714286 0 0 0.0714286 0 0 0.0714286 0 
0 0.0714286 0 0 0.0714286 0 0 0.142857 0 
0 0.142857 0 0 0.142857 0 0 0.142857 0 
0 0.142857 0 0 0.142857 0 0 0.142857 0 
0 0.142857 0 0 0.142857 0 0 0.142857 0 
0 0.214286 0 0 0.214286 0 0 0.214286 0 
0 0.214286 0 0 0.214286 0 0 0.214286 0 
0 0.214286 0 0 0.214286 0 0 0.214286 0 
0 0.214286 0 0 0.285714 0 0 0.285714 0 
0 0.285714 0 0 0.285714 0 0 0.285714 0 
0 0.285714 0 0 0.285714 0 0 0.285714 0 
0 0.285714 0 0 0.285714 0 0 0.357143 0 
0 0.357143 0 0 0.357143 0 0 0.357143 0 
0 0.357143 0 0 0.357143 0 0 0.357143 0 
0 0.357143 0 0 0.357143 0 0 0.357143 0 
0 0.428571 0 0 0.428571 0 0 0.428571 0 
0 0.428571 0 0 0.428571 0 0 0.428571 0 
0 0.428571 0 0 0.428571 0 0 0.428571 0 
0 0.428571 0 0 0.5 0 0 0.5 0 
0 0.5 0 0 0.5 0 0 0.5 0 
0 0.5 0 0 0.5 0 0 0.5 0 
0 0.5 0 0 0.5 0 0 0.571429 0 
0 0.571429 0 0 0.571429 0 0 0.571429 0 
0 0.571429 0 0 0.571429 0 0 0.571429 0 
0 0.571429 0 0 0.571429 0 0 0.571429 0 
0 0.642857 0 0 0.642857 0 0 0.642857 0 
0 0.642857 0 0 0.642857 0 0 0.642857 0 
0 0.642857 0 0 0.642857 0 0 0.642857 0 
0 0.642857 0 0 0.714286 0 0 0.714286 0 
0 0.714286 0 0 0.714286 0 0 0.714286 0 
0 0.714286 0 0 0.714286 0 0 0.714286 0 
0 0.714286 0 0 0.714286 0 0 0.785714 0 
0 0.785714 0 0 0.785714 0 0 0.785714 0 
0 0.785714 0 0 0.785714 0 0 0.785714 0 
0 0.785714 0 0 0.785714 0 0 0.785714 0 
0 0.857143 0 0 0.857143 0 0 0.857143 0 
0 0.857143 0 0 0.857143 0 0 0.857143 0 
0 0.857143 0 0 0.857143 0 0 0.857143 0 
0 0.857143 0 0 0.928571 0 0 0.928571 0 
0 0.928571 0 0 0.928571 0 0 0.928571 0 
0 0.928571 0 0 0.928571 0 0 0.928571 0 
0 0.928571 0 0 0.928571 0 0 1 0 
0 1 0 0 1 0 0 1 0 
0 1 0 0 1 0 0 1 0 
0 1 0 0 1 0 0 1 0 
0 0 0.105263 0 0 0.105263 0 0 0.105263 
0 0 0.105263 0 0 0.105263 0 0 0.105263 
0 0 0.105263 0 0 0.105263 0 0 0.105263 
0 0 0.105263 0 0.0714286 0.105263 0 0.0714286 0.105263 
0 0.0714286 0.105263 0 0.0714286 0.105263 0 0.0714286 0.105263 
0 0.0714286 0.105263 0 0.0714286 0.105263 0 0.0714286 0.105263 
0 0.0714286 0.105263 0 0.0714286 0.105263 0 0.142857 0.105263 
0 0.142857 0.105263 0 0.142857 0.105263 0 0.142857 0.105263 
0 0.142857 0.105263 0 0.142857 0.105263 0 0.142857 0.105263 
0 0.142857 0.105263 0 0.142857 0.105263 0 0.142857 0.105263 
0 0.214286 0.105263 0 0.214286 0.105263 0 0.214286 0.105263 
0 0.214286 0.105263 0 0.214286 0.105263 0 0.214286 0.105263 
0 0.214286 0.105263 0 0.214286 0.105263 0 0.214286 0.105263 
0 0.214286 0.105263 0 0.285714 0.105263 0 0.285714 0.105263 
0 0.285714 0.105263 0 0.285714 0.105263 0 0.285714 0.105263 
0 0.285714 0.105263 0 0.285714 0.105263 0 0.285714 0.105263 
0 0.285714 0.105263 0 0.285714 0.105263 0 0.357143 0.105263 
0 0.357143 0.105263 0 0.357143 0.105263 0 0.357143 0.105263 
0 0.357143 0.105263 0 0.357143 0.105263 0 0.357143 0.105263 
0 0.357143 0.105263 0 0.357143 0.105263 0 0.357143 0.105263 
0 0.428571 0.105263 0 0.428571 0.105263 0 0.428571 0.105263 
0 0.428571 0.105263 0 0.428571 0.105263 0 0.428571 0.105263 
0 0.428571 0.105263 0 0.428571 0.105263 0 0.428571 0.105263 
0 0.428571 0.105263 0 0.5 0.105263 0 0.5 0.105263 
0 0.5 0.105263 0 0.5 0.105263 0 0.5 0.105263 
0 0.5 0.105263 0 0.5 0.105263 0 0.5 0.105263 
0 0.5 0.105263 0 0.5 0.105263 0 0.571429 0.105263 
0 0.571429 0.105263 0 0.571429 0.105263 0 0.571429 0.105263 
0 0.571429 0.105263 0 0.571429 0.105263 0 0.571429 0.105263 
0 0.571429 0.105263 0 0.571429 0.105263 0 0.571429 0.105263 
0 0.642857 0.105263 0 0.642857 0.105263 0 0.642857 0.105263 
0 0.642857 0.105263 0 0.642857 0.105263 0 0.642857 0.105263 
0 0.642857 0.105263 0 0.642857 0.105263 0 0.642857 0.105263 
0 0.642857 0.105263 0 0.714286 0.105263 0 0.714286 0.105263 
0 0.714286 0.105263 0 0.714286 0.105263 0 0.714286 0.105263 
0 0.714286 0.105263 0 0.714286 0.105263 0 0.714286 0.105263 
0 0.714286 0.105263 0 0.714286 0.105263 0 0.785714 0.105263 
0 0.785714 0.105263 0 0.785714 0.105263 0 0.785714 0.105263 
0 0.785714 0.105263 0 0.785714 0.105263 0 0.785714 0.105263 
0 0.785714 0.105263 0 0.785714 0.105263 0 0.785714 0.105263 
0 0.857143 0.105263 0 0.857143 0.105263 0 0.857143 0.105263 
0 0.857143 0.105263 0 0.857143 0.105263 0 0.857143 0.105263 
0 0.857143 0.105263 0 0.857143 0.105263 0 0.857143 0.105263 
0 0.857143 0.105263 0 0.928571 0.105263 0 0.928571 0.105263 
0 0.928571 0.105263 0 0.928571 0.105263 0 0.928571 0.105263 
0 0.928571 0.105263 0 0.928571 0.105263 0 0.928571 0.105263 
0 0.928571 0.105263 0 0.928571 0.105263 0 1 0.105263 
0 1 0.105263 0 1 0.105263 0 1 0.105263 
0 1 0.105263 0 1 0.105263 0 1 0.105263 
0 1 0.105263 0 1 0.105263 0 1 0.105263 
0 0 0.210526 0 0 0.210526 0 0 0.210526 
0 0 0.210526 0 0 0.210526 0 0 0.210526 
0 0 0.210526 0 0 0.210526 0 0 0.210526 
0 0 0.210526 0 0.0714286 0.210526 0 0.0714286 0.210526 
0 0.0714286 0.210526 0 0.0714286 0.210526 0 0.0714286 0.210526 
0 0.0714286 0.210526 0 0.0714286 0.210526 0 0.0714286 0.210526 
0 0.0714286 0.210526 0 0.0714286 0.210526 0 0.142857 0.210526 
0 0.142857 0.210526 0 0.142857 0.210526 0 0.142857 0.210526 
0 0.142857 0.210526 0 0.142857 0.210526 0 0.142857 0.210526 
0 0.142857 0.210526 0 0.142857 0.210526 0 0.142857 0.210526 
0 0.214286 0.210526 0 0.214286 0.210526 0 0.214286 0.210526 
0 0.214286 0.210526 0 0.214286 0.210526 0 0.214286 0.210526 
0 0.214286 0.210526 0 0.214286 0.210526 0 0.214286 0.210526 
0 0.214286 0.210526 0 0.285714 0.210526 0 0.285714 0.210526 
0 0.285714 0.210526 0 0.285714 0.210526 0 0.285714 0.210526 
0 0.285714 0.210526 0 0.285714 0.210526 0 0.285714 0.210526 
0 0.285714 0.210526 0 0.285714 0.210526 0 0.357143 0.210526 
0 0.357143 0.210526 0 0.357143 0.210526 0 0.357143 0.210526 
0 0.357143 0.210526 0 0.357143 0.210526 0 0.357143 0.210526 
0 0.357143 0.210526 0 0.357143 0.210526 0 0.357143 0.210526 
0 0.428571 0.210526 0 0.428571 0.210526 0 0.428571 0.210526 
0 0.428571 0.210526 0 0.428571 0.210526 0 0.428571 0.210526 
0 0.428571 0.210526 0 0.428571 0.210526 0 0.428571 0.210526 
0 0.428571 0.210526 0 0.5 0.210526 0 0.5 0.210526 
0 0.5 0.210526 0 0.5 0.210526 0 0.5 0.210526 
0 0.5 0.210526 0 0.5 0.210526 0 0.5 0.210526 
0 0.5 0.210526 0 0.5 0.210526 0 0.571429 0.210526 
0 0.571429 0.210526 0 0.571429 0.210526 0 0.571429 0.210526 
0 0.571429 0.210526 0 0.571429 0.210526 0 0.571429 0.210526 
0 0.571429 0.210526 0 0.571429 0.210526 0 0.571429 0.210526 
0 0.642857 0.210526 0 0.642857 0.210526 0 0.642857 0.210526 
0 0.642857 0.210526 0 0.642857 0.210526 0 0.642857 0.210526 
0 0.642857 0.210526 0 0.642857 0.210526 0 0.642857 0.210526 
0 0.642857 0.210526 0 0.714286 0.210526 0 0.714286 0.210526 
0 0.714286 0.210526 0 0.714286 0.210526 0 0.714286 0.210526 
0 0.714286 0.210526 0 0.714286 0.210526 0 0.714286 0.210526 
0 0.714286 0.210526 0 0.714286 0.210526 0 0.785714 0.210526 
0 0.785714 0.210526 0 0.785714 0.210526 0 0.785714 0.210526 
0 0.785714 0.210526 0 0.785714 0.210526 0 0.785714 0.210526 
0 0.785714 0.210526 0 0.785714 0.210526 0 0.785714 0.210526 
0 0.857143 0.210526 0 0.857143 0.210526 0 0.857143 0.210526 
0 0.857143 0.210526 0 0.857143 0.210526 0 0.857143 0.210526 
0 0.857143 0.210526 0 0.857143 0.210526 0 0.857143 0.210526 
0 0.857143 0.210526 0 0.928571 0.210526 0 0.928571 0.210526 
0 0.928571 0.210526 0 0.928571 0.210526 0 0.928571 0.210526 
0 0.928571 0.210526 0 0.928571 0.210526 0 0.928571 0.210526 
0 0.928571 0.210526 0 0.928571 0.210526 0 1 0.210526 
0 1 0.210526 0 1 0.210526 0 1 0.210526 
0 1 0.210526 0 1 0.210526 0 1 0.210526 
0 1 0.210526 0 1 0.210526 0 1 0.210526 
0 0 0.315789 0 0 0.315789 0 0 0.315789 
0 0 0.315789 0 0 0.315789 0 0 0.315789 
0 0 0.315789 0 0 0.315789 0 0 0.315789 
0 0 0.315789 0 0.0714286 0.315789 0 0.0714286 0.315789 
0 0.0714286 0.315789 0 0.0714286 0.315789 0 0.0714286 0.315789 
0 0.0714286 0.315789 0 0.0714286 0.315789 0 0.0714286 0.315789 
0 0.0714286 0.315789 0 0.0714286 0.315789 0 0.142857 0.315789 
0 0.142857 0.315789 0 0.142857 0.315789 0 0.142857 0.315789 
0 0.142857 0.315789 0 0.142857 0.315789 0 0.142857 0.315789 
0 0.142857 0.315789 0 0.142857 0.315789 0 0.142857 0.315789 
0 0.214286 0.315789 0 0.214286 0.315789 0 0.214286 0.315789 
0 0.214286 0.315789 0 0.214286 0.315789 0 0.214286 0.315789 
0 0.214286 0.315789 0 0.214286 0.315789 0 0.214286 0.315789 
0 0.214286 0.315789 0 0.285714 0.315789 0 0.285714 0.315789 
0 0.285714 0.315789 0 0.285714 0.315789 0 0.285714 0.315789 
0 0.285714 0.315789 0 0.285714 0.315789 0 0.285714 0.315789 
0 0.285714 0.315789 0 0.285714 0.315789 0 0.357143 0.315789 
0 0.357143 0.315789 0 0.357143 0.315789 0 0.357143 0.315789 
0 0.357143 0.315789 0 0.357143 0.315789 0 0.357143 0.315789 
0 0.357143 0.315789 0 0.357143 0.315789 0 0.357143 0.315789 
0 0.428571 0.315789 0 0.428571 0.315789 0 0.428571 0.315789 
0 0.428571 0.315789 0 0.428571 0.315789 0 0.428571 0.315789 
0 0.428571 0.315789 0 0.428571 0.315789 0 0.428571 0.315789 
0 0.428571 0.315789 0 0.5 0.315789 0 0.5 0.315789 
0 0.5 0.315789 0 0.5 0.315789 0 0.5 0.315789 
0 0.5 0.315789 0 0.5 0.315789 0 0.5 0.315789 
0 0.5 0.315789 0 0.5 0.315789 0 0.571429 0.315789 
0 0.571429 0.315789 0 0.571429 0.315789 0 0.571429 0.315789 
0 0.571429 0.315789 0 0.571429 0.315789 0 0.571429 0.315789 
0 0.571429 0.315789 0 0.571429 0.315789 0 0.571429 0.315789 
0 0.642857 0.315789 0 0.642857 0.315789 0 0.642857 0.315789 
0 0.642857 0.315789 0 0.642857 0.315789 0 0.642857 0.315789 
0 0.642857 0.315789 0 0.642857 0.315789 0 0.642857 0.315789 
0 0.642857 0.315789 0 0.714286 0.315789 0 0.714286 0.315789 
0 0.714286 0.315789 0 0.714286 0.315789 0 0.714286 0.315789 
0 0.714286 0.315789 0 0.714286 0.315789 0 0.714286 0.315789 
0 0.714286 0.315789 0 0.714286 0.315789 0 0.785714 0.315789 
0 0.785714 0.315789 0 0.785714 0.315789 0 0.785714 0.315789 
0 0.785714 0.315789 0 0.785714 0.315789 0 0.785714 0.315789 
0 0.785714 0.315789 0 0.785714 0.315789 0 0.785714 0.315789 
[...]
POINT_DATA 3000
FIELD FieldData 3
unknown 1 3000 double
7 7 7 7 7 7 7 7 7 
7 7 7 7 7 7 7 7 7 
7 7 7 7 7 7 7 7 7 
7 7 7 7 7 7 7 7 7 
7 7 7 7 7 7 7 7 7 
7 7 7 7 7 7 7 7 7 
7 7 7 7 7 7 7 7 7 
7 7 7 7 7 7 7 7 7 
7 7 7 7 7 7 7 7 7 
7 7 7 7 7 7 7 7 7 
7 7 7 7 7 7 7 7 7 
7 7 7 7 7 7 7 7 7 
7 7 7 7 7 7 7 7 7 
7 7 7 7 7 7 7 7 7 
7 7 7 7 7 7 7 7 7 
7 7 7 7 7 7 7 7 7 
7 7 7 7 7 7 7 1.5170588576 0.020706931118 
-0.44081366743 -0.59733165807 -0.65375025405 -0.67482040737 -0.68306791369 -0.69426870578 -1 7 3.2470646238 
1.1289509122 0.18303588747 -0.20857190157 -0.36594857462 -0.42842817791 -0.45365783589 -0.48079780758 -1 7 
4.1241692795 1.9182418413 0.69594963813 0.10533976823 -0.16027191257 -0.27486464854 -0.32388120634 -0.36762294264 -1 
7 4.5665371056 2.4284328196 1.082054611 0.3559816284 -0.0019074448951 -0.16848882591 -0.24410960798 -0.30439396585 
-1 7 4.78908238 2.7399278844 1.3533532146 0.54801774868 0.12232595719 -0.088755458814 -0.18990059916 
-0.26585297937 -1 7 4.9009464429 2.9231258907 1.5342330493 0.6884705593 0.21820306785 -0.02694400205 
-0.14995834327 -0.23986858999 -1 7 4.9571892941 3.0280809777 1.6500508694 0.7868860496 0.28994754555 
0.020916423279 -0.11925267194 -0.22084650291 -1 7 4.9854931871 3.0870666324 1.7218969065 0.8533333567 
0.34183092998 0.057250185001 -0.095439744397 -0.20626243451 -1 7 4.9997562699 3.1197396144 1.7653540823 
0.89680576291 0.37814503496 0.08409832808 -0.077186145695 -0.19492846664 -1 7 5.0069553964 3.1376358484 
1.791107657 0.92449996817 0.40282114606 0.10338140399 -0.063489394009 -0.18618465157 -1 7 5.0105953952 
3.1473521591 1.8061154098 0.94174864742 0.41915529198 0.11685854832 -0.053463528631 -0.17955996503 -1 7 
5.0124389725 3.1525897896 1.8147385146 0.95228455327 0.42971865605 0.12604117343 -0.046309299337 -0.17465504817 -1 
7 5.013373078 3.1553925566 1.8196255375 0.95859903669 0.43639332889 0.13213513516 -0.041345980532 -0.17112552067 
-1 7 5.0138370635 3.1568502613 1.8222955791 0.96221995005 0.44040062381 0.13595355999 -0.038112718873 
-0.16875089275 -1 7 5.0139870721 3.157334297 1.8232078011 0.96349165761 0.44184466975 0.13736207983 
-0.036895111497 -0.16784158322 -1 7 1.3585858582 -0.21923512556 -0.71559763227 -0.88637348496 -0.94854231084 
-0.97190865195 -0.98087080963 -0.98498897092 -1 7 3.0460000255 0.77599454679 -0.25126222071 -0.68079950701 
-0.85468925975 -0.92407691191 -0.95165051937 -0.96422699563 -1 7 3.9308093866 1.5438002948 0.2073828084 
-0.44339577041 -0.737760189 -0.86527509857 -0.91916541268 -0.94415751586 -1 7 4.3885381859 2.0626813426 
0.58425211163 -0.21839888563 -0.61597179177 -0.80165558478 -0.88515766526 -0.92509645573 -1 7 4.6232977337 
2.3885531484 0.86214778875 -0.030046266624 -0.50375245797 -0.73935230865 -0.85137696694 -0.90693305493 -1 7 
4.7430543376 2.5839168216 1.0529033989 0.11466796655 -0.40925648689 -0.68314606653 -0.81967524948 -0.88987658728 -1 
7 4.8039506152 2.6973696284 1.1773570882 0.21907433944 -0.33498677725 -0.63576675462 -0.79155515568 -0.87436093273 
-1 7 4.834864582 2.7617618985 1.2555421515 0.29086536062 -0.27970181547 -0.59801330731 -0.76787863181 
-0.86079876193 -1 7 4.8505482265 2.7976903966 1.3032520638 0.33839706714 -0.24031302873 -0.56931037871 
-0.74884891455 -0.84942390203 -1 7 4.8585058067 2.8174776228 1.3317046701 0.36892237898 -0.2132418383 
-0.54833472696 -0.73416614338 -0.84025223198 -1 7 4.8625456625 2.8282652176 1.3483617474 0.38804133621 
-0.1951872021 -0.53351372618 -0.72323575001 -0.83312051616 -1 7 4.8645982469 2.8340987964 1.3579652354 
0.39976641415 -0.18345140194 -0.52334364502 -0.71535375985 -0.82775701734 -1 7 4.865640822 2.837228075 
1.3634217886 0.4068139137 -0.17600960932 -0.51656255549 -0.70984889792 -0.82386029585 -1 7 4.8661596522 
2.838858548 1.3664085294 0.41086337173 -0.17153104021 -0.51230058501 -0.70624788938 -0.82122345718 -1 7 
4.8663275633 2.8394004787 1.3674299435 0.41228705709 -0.16991526856 -0.51072617822 -0.70488921775 -0.82021117712 -1 
7 1.3536131881 -0.2280467747 -0.72656332653 -0.89840132357 -0.96105857883 -0.98463896743 -0.99366862826 -0.99723116903 
-1 7 3.036997252 0.75831213841 -0.27452602038 -0.70705238251 -0.88238868021 -0.9524316265 -0.9802263118 
-0.99143646136 -1 7 3.9203518968 1.5215722172 0.17659896409 -0.47921932905 -0.77621067887 -0.90498768149 
-0.95934851188 -0.98232792027 -1 7 4.3779109045 2.0388268768 0.54985275811 -0.25953118101 -0.66086552613 
-0.84846747031 -0.93275166704 -0.9702833075 -1 7 4.6129351171 2.3644960089 0.82644917119 -0.073656325024 
-0.55204701939 -0.79016663482 -0.90329800471 -0.9562652966 -1 7 4.7330119493 2.5601721805 1.0170213855 
0.070157656913 -0.45911471005 -0.73601237924 -0.87394439703 -0.94151430716 -1 7 4.7941619996 2.6740262288 
1.1417141593 0.17441850098 -0.38542157472 -0.68956972997 -0.84700494743 -0.92721011309 -1 7 4.8252475998 
2.7387538526 1.2202274335 0.24635935863 -0.33024272999 -0.65216758036 -0.823864972 -0.91424383774 -1 7 
4.8410379149 2.77492084 1.2682243954 0.29411276781 -0.29077112828 -0.62353749718 -0.80503949768 -0.90313550881 -1 
7 4.8490584114 2.7948634398 1.2968898026 0.32483982681 -0.26356602786 -0.60252050424 -0.79040325294 -0.89406377954 
-1 7 4.8531340942 2.8057467858 1.3136911101 0.34411356634 -0.24538502916 -0.5876246708 -0.77945375606 
-0.88695394462 -1 7 4.855206576 2.8116371374 1.3233868801 0.35594697708 -0.23354948423 -0.57738149069 
-0.77153230087 -0.88158015391 -1 7 4.8562599834 2.8147990799 1.3289000068 0.36306576693 -0.22603627346 
-0.57054153588 -0.76598788785 -0.8776634548 -1 7 4.8567844943 2.8164474769 1.3319194414 0.36715879178 
-0.22151126659 -0.56623828257 -0.76235593898 -0.87500782423 -1 7 4.8569542986 2.8169955386 1.3329523723 
0.36859830635 -0.21987805799 -0.5646477831 -0.76098461321 -0.87398733343 -1 7 1.3534453716 -0.22838768002 
-0.72702475423 -0.89893266044 -0.96162633886 -0.98522431364 -0.99426015815 -0.99778922189 -1 7 3.0366201206 
0.75749178733 -0.27568183842 -0.70841333956 -0.88386026141 -0.95395790084 -0.98177265128 -0.9928917011 -1 7 
3.9198437433 1.5203949088 0.17486568519 -0.48131877661 -0.77851961665 -0.90740526086 -0.96180913721 -0.98464073711 -1 
7 4.3773430442 2.0374459795 0.54774189234 -0.26215671136 -0.66380340699 -0.85157583391 -0.93593287163 -0.97327398706 
-1 7 4.612349715 2.3630236616 0.82413230097 -0.076603054886 -0.55539644536 -0.79374656935 -0.9069831433 
-0.95973403394 -1 7 4.7324279289 2.558671735 1.014611505 0.067039498674 -0.46270555045 -0.73988519227 
-0.87795319289 -0.94529466993 -1 7 4.7935852589 2.6725265011 1.1392734284 0.17122159494 -0.38914028531 
-0.69361047342 -0.85120807773 -0.93118185703 -1 7 4.8246782942 2.7372644353 1.2177845488 0.24313379494 
-0.33402190675 -0.65629765816 -0.82817830565 -0.91832765198 -1 7 4.8404743521 2.7734425388 1.2657895733 
0.29088199218 -0.29457477606 -0.62771159896 -0.809412299 -0.90728251769 -1 7 4.8484987382 2.7933939836 
1.2944645855 0.32161271425 -0.26737705259 -0.60671460246 -0.79480689821 -0.89824552564 -1 7 4.8525768493 
2.8042834392 1.3112737885 0.34089204611 -0.24919654492 -0.59182713104 -0.78387308672 -0.89115466789 -1 7 
4.8546507593 2.8101776468 1.3209750681 0.35273024284 -0.23735951237 -0.58158728631 -0.77595978074 -0.88579150597 -1 
7 4.8557049657 2.8133418591 1.3264916494 0.35985233092 -0.22984481521 -0.57474878968 -0.77041993517 -0.88188110281 
-1 7 4.8562298964 2.8149914923 1.3295130409 0.36394730573 -0.22531885903 -0.57044633657 -0.76679070768 
-0.87922929962 -1 7 4.856399843 2.8155399858 1.3305466834 0.36538757789 -0.22368519497 -0.56885596755 
-0.76542018734 -0.87821003116 -1 7 1.353439354 -0.22840142745 -0.72704494189 -0.89895716879 -0.96165337277 
-0.98525266705 -0.99428900175 -0.99781617542 -1 7 3.0366046648 0.75745486975 -0.27573760152 -0.70848219603 
-0.88393695568 -0.95403875782 -0.9818550933 -0.99296865097 -1 7 3.9198202835 1.5203359525 0.17477319423 
-0.48143599299 -0.77865234944 -0.90754653845 -0.96195383394 -0.98477570011 -1 7 4.3773143328 2.0373706279 
0.54761941085 -0.26231606684 -0.66398709221 -0.85177346155 -0.93613635827 -0.97346378351 -1 7 4.6123181002 
2.3629378303 0.82398851799 -0.0767946361 -0.55562106377 -0.79399084078 -0.90723601685 -0.95996998674 -1 7 
4.7323948877 2.5585797641 1.0144536782 0.066824890861 -0.46296102084 -0.7401657727 -0.87824510634 -0.94556717383 -1 
7 4.7935515399 2.6724309724 1.1391064308 0.17099071824 -0.38941871136 -0.6939189165 -0.85153036048 -0.93148279459 
-1 7 4.8246442011 2.7371666518 1.2176112064 0.24289095424 -0.3343179303 -0.65662799819 -0.82852469072 
-0.91865110132 -1 7 4.8404399734 2.7733430741 1.26561138 0.29062972031 -0.29488502946 -0.62805994049 
-0.80977861687 -0.90762451719 -1 7 4.8484640854 2.7932930816 1.2942823406 0.32135252648 -0.26769938959 
-0.60707838378 -0.79519038548 -0.89860346657 -1 7 4.8525419236 2.8041812398 1.3110880099 0.34062499255 
-0.24952941751 -0.59220447563 -0.78427173603 -0.89152670034 -1 7 4.8546155747 2.8100742885 1.3207862115 
0.35245723872 -0.23770155859 -0.58197653511 -0.77637183736 -0.88617605671 -1 7 4.8556695532 2.8132375112 
1.3263002 0.35957431758 -0.23019463257 -0.57514821636 -0.77084356334 -0.88227653652 -1 7 4.8561943072 
2.8148863878 1.3293196195 0.36366547314 -0.22567464237 -0.57085364713 -0.76722338213 -0.87963330565 -1 7 
4.8563641871 2.8154345965 1.3303525202 0.36510430742 -0.22404322953 -0.56926626149 -0.76585629485 -0.878617298 -1 
7 1.3534390442 -0.22840227279 -0.72704637275 -0.89895907298 -0.96165555427 -0.98525492899 -0.9942911908 -0.99781807701 
-1 7 3.0366037567 0.75745231862 -0.27574200412 -0.70848812376 -0.88394378691 -0.95404585146 -0.98186194422 
-0.99297457331 -1 7 3.9198185843 1.5203309608 0.17476428483 -0.48144825737 -0.7786666534 -0.90756143861 
-0.96196815869 -0.98478795362 -1 7 4.3773116984 2.0373625572 0.54760451351 -0.2623370591 -0.66401190901 
-0.85179942392 -0.93616120795 -0.97348479839 -1 7 4.6123143986 2.3629260856 0.82396618546 -0.076826803125 
-0.55565962192 -0.79403141083 -0.90727475014 -0.96000242731 -1 7 4.73239 2.5585638149 1.0144225781 
0.066779196962 -0.46301655761 -0.7402246404 -0.87830132673 -0.94561396267 -1 7 4.7935453838 2.6724104318 
1.1390655203 0.17092952666 -0.38949411048 -0.69399955077 -0.85160761937 -0.93154692713 -1 7 4.8246367533 
2.7371413536 1.2175599061 0.24281297567 -0.33441530905 -0.65673318093 -0.82862604598 -0.91873530421 -1 7 
4.8404312782 2.7733131058 1.2655496691 0.29053454644 -0.29500541661 -0.62819134848 -0.8099061808 -0.90773085202 -1 
7 4.8484542463 2.793258764 1.2942107383 0.3212406569 -0.2678426101 -0.60723637142 -0.79534503229 -0.89873303384 
-1 7 4.8525310861 2.8041430689 1.3110074728 0.34049771866 -0.24969416586 -0.59238805983 -0.78445298901 
-0.89167947251 -1 7 4.8546039055 2.8100328604 1.3206979795 0.352316422 -0.23788563825 -0.58218359069 
-0.77657797888 -0.88635090306 -1 7 4.8556572244 2.8131934659 1.3262056763 0.35942221244 -0.23039514941 
-0.57537562794 -0.77107170208 -0.88247120673 -1 7 4.8561815022 2.8148404314 1.3292204343 0.36350486892 
-0.2258877416 -0.57109689932 -0.76746890964 -0.87984385514 -1 7 4.8563512014 2.8153879122 1.3302515518 
0.36494043608 -0.2242611881 -0.56951565784 -0.76610859315 -0.87883404957 -1 7 1.3534387593 -0.2284031643 
-0.72704799865 -0.89896126665 -0.96165796683 -0.98525721079 -0.99429310737 -0.99781947488 -1 7 3.0366028212 
0.75744938044 -0.27574738273 -0.70849540512 -0.88395181867 -0.95405346731 -0.98186835427 -0.99297925497 -1 7 
3.9198164464 1.5203241779 0.17475174149 -0.48146539935 -0.77868572396 -0.90757965748 -0.96198358908 -0.98479927399 -1 
7 4.3773077048 2.037349724 0.54758046087 -0.26237035706 -0.66404939936 -0.85183562943 -0.93619216166 -0.97350767196 
-1 7 4.6123079135 2.3629049555 0.82392598146 -0.076883294904 -0.55572413123 -0.79409453005 -0.90732935126 
-0.9600431589 -1 7 4.7323805263 2.558532514 1.0143620864 0.066692849544 -0.4631166755 -0.74032402446 
-0.87838844688 -0.94567967265 -1 7 4.7935326451 2.6723677771 1.1389818122 0.17080813687 -0.38963706924 
-0.69414360591 -0.85173568568 -0.93164467818 -1 7 4.8246207188 2.7370869933 1.2174516642 0.24265359661 
-0.33460589741 -0.65692812129 -0.82880183191 -0.91887113055 -1 7 4.840412134 2.7732474749 1.2654172266 
0.29033673153 -0.29524542804 -0.62844040259 -0.81013390834 -0.90790895573 -1 7 4.8484323356 2.7931829097 
1.2940558233 0.32100625282 -0.26813085953 -0.60753954731 -0.79562593159 -0.89895528769 -1 7 4.8525068375 
2.8040584157 1.3108327753 0.3402303178 -0.2500269943 -0.59274247067 -0.78478539658 -0.89194534851 -1 7 
4.8545777712 2.8099409875 1.3205066986 0.35202071211 -0.23825762593 -0.58258406987 -0.77695774876 -0.88665766647 -1 
7 4.8556296393 2.8130959496 1.3260011718 0.35910343443 -0.23079976219 -0.5758153412 -0.77149266785 -0.88281418056 
-1 7 4.8561528944 2.8147388855 1.32900633 0.36316903956 -0.22631691818 -0.57156669425 -0.76792201424 
-0.88021549699 -1 7 4.8563222027 2.8152848181 1.3300337357 0.36459797079 -0.22469998448 -0.56999730215 
-0.76657442316 -0.87921708933 -1 7 1.3534378789 -0.22840579021 -0.72705253442 -0.89896705107 -0.96166397731 
-0.98526258065 -0.99429736594 -0.99782241588 -1 7 3.0365999376 0.75744074693 -0.27576235357 -0.70851456777 
-0.88397179837 -0.95407137377 -0.98188259592 -0.99298911453 -1 7 3.9198099199 1.5203044274 0.17471711226 
-0.48151019628 -0.77873289387 -0.90762231918 -0.96201780283 -0.98482312844 -1 7 4.3772957038 2.0373128928 
0.54751491665 -0.26245638151 -0.66414122742 -0.85191974741 -0.93626042082 -0.97355574505 -1 7 4.6122888037 
2.3628453978 0.8238182113 -0.077027097422 -0.55588009061 -0.79423955456 -0.90744869229 -0.96012822758 -1 7 
4.7323532006 2.5584460252 1.0142028807 0.066476707582 -0.46335507623 -0.74054932215 -0.87857669291 -0.94581564755 -1 
7 4.7934966874 2.6722522838 1.1387656451 0.1705095929 -0.38997198879 -0.69446537379 -0.85200879467 -0.93184468426 
-1 7 4.824576385 2.7369426712 1.2171772986 0.24226844668 -0.33504511634 -0.65735695867 -0.82917153251 
-0.91914561843 -1 7 4.8403602019 2.7730763934 1.265087369 0.28986666717 -0.29578977651 -0.62898009302 
-0.81060618903 -0.90826429761 -1 7 4.848373898 2.7929884129 1.2936761319 0.32045782591 -0.26877490511 
-0.6081871942 -0.79620067544 -0.89939317737 -1 7 4.8524431038 2.8038444614 1.3104106313 0.3396133513 
-0.25076058688 -0.59348964318 -0.78545698625 -0.89246295644 -1 7 4.8545099151 2.8097115937 1.3200500633 
0.35134663156 -0.23906777808 -0.58341851378 -0.77771634644 -0.88724840773 -1 7 4.8555587149 2.8128548601 
1.3255178292 0.35838407061 -0.23167209431 -0.57672237047 -0.77232530081 -0.88346838014 -1 7 4.8560798643 
2.81448965 1.3285040387 0.36241689915 -0.22723517966 -0.57252842042 -0.76881150984 -0.88091923226 -1 7 
4.8562483697 2.8150324563 1.3295241144 0.36383304653 -0.22563630254 -0.57098069074 -0.76748658773 -0.87994067683 -1 
7 1.3534350607 -0.22841371451 -0.7270653916 -0.89898246378 -0.96167906372 -0.98527531087 -0.99430692993 -0.99782871292 
-1 7 3.0365907665 0.75741483833 -0.27580458405 -0.70856540849 -0.88402175699 -0.95411367962 -0.98191448195 
-0.99301016636 -1 7 3.9197895327 1.5202460864 0.17462077886 -0.48162759068 -0.77884955165 -0.90772212525 
-0.96209373158 -0.98487365847 -1 7 4.3772590873 2.0372063638 0.54733598859 -0.26267802716 -0.66436488521 
-0.8521138367 -0.93641001869 -0.9736564251 -1 7 4.6122319806 2.3626771296 0.82353023005 -0.077390457811 
-0.55625323831 -0.79456876208 -0.90770636464 -0.9603039668 -1 7 4.7322740267 2.5582074573 1.0137867847 
0.065941659317 -0.46391472409 -0.74105181344 -0.87897655839 -0.9460923393 -1 7 4.7933950486 2.6719410212 
1.1382128563 0.16978553245 -0.39074325854 -0.69517021726 -0.8525792261 -0.93224531353 -1 7 4.8244538843 
2.7365620324 1.2164899854 0.24135248079 -0.33603788488 -0.65827986245 -0.82993088654 -0.91968682503 -1 7 
4.8402195735 2.7726338868 1.2642764633 0.28876890951 -0.2969987959 -0.63012218198 -0.8115607536 -0.90895427735 -1 
7 4.8482183853 2.7924938498 1.2927582137 0.31919790786 -0.2701826146 -0.6095365447 -0.797344955 -0.90023121599 
-1 7 4.8522759535 2.8033082505 1.3094047245 0.33821621082 -0.25234134405 -0.59502466397 -0.78677585664 
-0.89344046893 -1 7 4.8543340504 2.8091435209 1.3189750733 0.34983874491 -0.24079212619 -0.58511186 
-0.77918803817 -0.88835079621 -1 7 4.8553765939 2.812263458 1.3243910209 0.35679094091 -0.23350989581 
-0.5785440766 -0.77392398826 -0.88467677429 -1 7 4.8558935786 2.813882458 1.3273414315 0.36076357093 
-0.22915490074 -0.57444485032 -0.77050587994 -0.88220892333 -1 7 4.8560605089 2.8144192438 1.3283477226 
0.36215630062 -0.22758820962 -0.57293468659 -0.76921922692 -0.8812631081 -1 7 1.3534259773 -0.22843758939 
-0.72710152115 -0.8990229345 -0.96171619327 -0.98530477514 -0.99432782209 -0.99784178414 -1 7 3.0365614336 
0.75733728775 -0.27592259019 -0.70869825598 -0.88414418464 -0.95421122449 -0.98198389841 -0.99305373075 -1 7 
3.9197256764 1.5200746026 0.17435582838 -0.48193009304 -0.77913191948 -0.90794972747 -0.96225740589 -0.9849772982 -1 
7 4.3771474066 2.0369005513 0.5468541307 -0.26323849701 -0.66489714633 -0.8525497285 -0.93672806253 -0.97386034405 
-1 7 4.6120635167 2.3622063551 0.82277261737 -0.078289906824 -0.55712414476 -0.79529506164 -0.9082453123 
-0.96065462417 -1 7 4.732045746 2.5575569589 1.0127178905 0.064646117095 -0.46519447116 -0.7421395845 
-0.87979833711 -0.94663550176 -1 7 4.7931095059 2.6711127726 1.1368250706 0.16806983853 -0.39247139088 
-0.69666711737 -0.85373067824 -0.93301865406 -1 7 4.8241176523 2.7355714715 1.2148008505 0.23922585114 
-0.33821943642 -0.66020385308 -0.831436928 -0.92071425566 -1 7 4.8398413026 2.7715047098 1.2623213361 
0.28626717327 -0.29960806354 -0.63246198883 -0.81342249996 -0.91024331734 -1 7 4.84780712 2.7912528465 
1.2905816185 0.31637353334 -0.27317177803 -0.61225734596 -0.79954240198 -0.90177359672 -1 7 4.8518399882 
2.8019813546 1.3070528334 0.33512834552 -0.25565057873 -0.59807635876 -0.78927343704 -0.89521514025 -1 7 
4.8538803429 2.807753435 1.3164904985 0.34654538036 -0.24435859496 -0.58843742209 -0.7819411228 -0.89032811906 -1 
7 4.8549106381 2.8108287812 1.3218103032 0.35334443004 -0.23727356741 -0.58208550764 -0.77688389988 -0.88682196498 
-1 7 4.8554197371 2.8124185328 1.3246962019 0.35721178674 -0.23305746515 -0.57814198067 -0.77361838957 
-0.88448040198 -1 7 4.8555837269 2.8129443056 1.3256779178 0.35856392595 -0.23154496318 -0.57669324438 
-0.7723925581 -0.88358534685 -1 7 1.3533964872 -0.2285093103 -0.727201912 -0.89912729323 -0.96180541267 
-0.98537102795 -0.9943719682 -0.99786792753 -1 7 3.0364670922 0.75710612826 -0.27624834559 -0.70903890406 
-0.88443694021 -0.95442962652 -0.98213002399 -0.99314056799 -1 7 3.9195252698 1.5195740826 0.17363760119 
-0.48269358447 -0.77979780382 -0.90845309164 -0.96259819428 -0.98518186592 -1 7 4.3768072935 2.0360313537 
0.54557831611 -0.26462370496 -0.66612898445 -0.85349761676 -0.9373802686 -0.97425734348 -1 7 4.6115662075 
2.3609054732 0.82081731948 -0.080461816303 -0.55909746607 -0.7968442051 -0.90933114327 -0.96132633427 -1 7 
4.7313916099 2.5558082161 1.0100286134 0.061590784873 -0.46803132444 -0.74441305618 -0.88142309904 -0.94765796796 -1 
7 4.7923130851 2.6689421845 1.1334165189 0.16411458804 -0.39622092608 -0.69973313379 -0.85596444249 -0.93444874155 
-1 7 4.8232016907 2.7330337088 1.2107418305 0.23442526648 -0.34285821953 -0.66406933781 -0.83430533794 
-0.92258135812 -1 7 4.8388310829 2.7686676761 1.2577123791 0.28072508308 -0.30505532967 -0.6370797022 
-0.81690771282 -0.91254734218 -1 7 4.8467264309 2.7881850503 1.2855335892 0.31021803159 -0.27931157891 
-0.61754143366 -0.80359173576 -0.90448853524 -1 7 4.8507089481 2.7987438702 1.301671103 0.32849049914 
-0.26235360709 -0.60392042631 -0.79381185121 -0.89829618972 -1 7 4.8527147124 2.804396229 1.3108658778 
0.3395448609 -0.2514990535 -0.59473036801 -0.78688362391 -0.89371975378 -1 7 4.8537221095 2.8073903618 
1.316016065 0.34608279845 -0.24473874127 -0.58872179546 -0.78214447333 -0.89046424955 -1 7 4.854216996 
2.8089286406 1.3187917321 0.34977591967 -0.24074512524 -0.58501967128 -0.77910816872 -0.88830718074 -1 7 