# vtk DataFile Version 5.1
vtk output
ASCII
DATASET STRUCTURED_GRID
DIMENSIONS 10 15 20
POINTS 3000 float
0 0 0 0 0 0 0 0 0 
0 0 0 0 0 0 0 0 0 
0 0 0 0 0 0 0 0 0 
0 0 0 0 0.0714286 0 0 0.0714286 0 
0 0.0714286 0 0 0.0714286 0 0 0.0714286 0 
0 0.0714286 0 0 0.0714286 0 0 0.0714286 0 
0 0.0714286 0 0 0.0714286 0 0 0.142857 0 
0 0.142857 0 0 0.142857 0 0 0.142857 0 
0 0.142857 0 0 0.142857 0 0 0.142857 0 
0 0.142857 0 0 0.142857 0 0 0.142857 0 
0 0.214286 0 0 0.214286 0 0 0.214286 0 
0 0.214286 0 0 0.214286 0 0 0.214286 0 
0 0.214286 0 0 0.214286 0 0 0.214286 0 
0 0.214286 0 0 0.285714 0 0 0.285714 0 
0 0.285714 0 0 0.285714 0 0 0.285714 0 
0 0.285714 0 0 0.285714 0 0 0.285714 0 
0 0.285714 0 0 0.285714 0 0 0.357143 0 
0 0.357143 0 0 0.357143 0 0 0.357143 0 
0 0.357143 0 0 0.357143 0 0 0.357143 0 
0 0.357143 0 0 0.357143 0 0 0.357143 0 
0 0.428571 0 0 0.428571 0 0 0.428571 0 
0 0.428571 0 0 0.428571 0 0 0.428571 0 
0 0.428571 0 0 0.428571 0 0 0.428571 0 
0 0.428571 0 0 0.5 0 0 0.5 0 
0 0.5 0 0 0.5 0 0 0.5 0 
0 0.5 0 0 0.5 0 0 0.5 0 
0 0.5 0 0 0.5 0 0 0.571429 0 
0 0.571429 0 0 0.571429 0 0 0.571429 0 
0 0.571429 0 0 0.571429 0 0 0.571429 0 
0 0.571429 0 0 0.571429 0 0 0.571429 0 
0 0.642857 0 0 0.642857 0 0 0.642857 0 
0 0.642857 0 0 0.642857 0 0 0.642857 0 
0 0.642857 0 0 0.642857 0 0 0.642857 0 
0 0.642857 0 0 0.714286 0 0 0.714286 0 
0 0.714286 0 0 0.714286 0 0 0.714286 0 
0 0.714286 0 0 0.714286 0 0 0.714286 0 
0 0.714286 0 0 0.714286 0 0 0.785714 0 
0 0.785714 0 0 0.785714 0 0 0.785714 0 
0 0.785714 0 0 0.785714 0 0 0.785714 0 
0 0.785714 0 0 0.785714 0 0 0.785714 0 
0 0.857143 0 0 0.857143 0 0 0.857143 0 
0 0.857143 0 0 0.857143 0 0 0.857143 0 
0 0.857143 0 0 0.857143 0 0 0.857143 0 
0 0.857143 0 0 0.928571 0 0 0.928571 0 
0 0.928571 0 0 0.928571 0 0 0.928571 0 
0 0.928571 0 0 0.928571 0 0 0.928571 0 
0 0.928571 0 0 0.928571 0 0 1 0 
0 1 0 0 1 0 0 1 0 
0 1 0 0 1 0 0 1 0 
0 1 0 0 1 0 0 1 0 
0 0 0.105263 0 0 0.105263 0 0 0.105263 
0 0 0.105263 0 0 0.105263 0 0 0.105263 
0 0 0.105263 0 0 0.105263 0 0 0.105263 
0 0 0.105263 0 0.0714286 0.105263 0 0.0714286 0.105263 
0 0.0714286 0.105263 0 0.0714286 0.105263 0 0.0714286 0.105263 
0 0.0714286 0.105263 0 0.0714286 0.105263 0 0.0714286 0.105263 
0 0.0714286 0.105263 0 0.0714286 0.105263 0 0.142857 0.105263 
0 0.142857 0.105263 0 0.142857 0.105263 0 0.142857 0.105263 
0 0.142857 0.105263 0 0.142857 0.105263 0 0.142857 0.105263 
0 0.142857 0.105263 0 0.142857 0.105263 0 0.142857 0.105263 
0 0.214286 0.105263 0 0.214286 0.105263 0 0.214286 0.105263 
0 0.214286 0.105263 0 0.214286 0.105263 0 0.214286 0.105263 
0 0.214286 0.105263 0 0.214286 0.105263 0 0.214286 0.105263 
0 0.214286 0.105263 0 0.285714 0.105263 0 0.285714 0.105263 
0 0.285714 0.105263 0 0.285714 0.105263 0 0.285714 0.105263 
0 0.285714 0.105263 0 0.285714 0.105263 0 0.285714 0.105263 
0 0.285714 0.105263 0 0.285714 0.105263 0 0.357143 0.105263 
0 0.357143 0.105263 0 0.357143 0.105263 0 0.357143 0.105263 
0 0.357143 0.105263 0 0.357143 0.105263 0 0.357143 0.105263 
0 0.357143 0.105263 0 0.357143 0.105263 0 0.357143 0.105263 
0 0.428571 0.105263 0 0.428571 0.105263 0 0.428571 0.105263 
0 0.428571 0.105263 0 0.428571 0.105263 0 0.428571 0.105263 
0 0.428571 0.105263 0 0.428571 0.105263 0 0.428571 0.105263 
0 0.428571 0.105263 0 0.5 0.105263 0 0.5 0.105263 
0 0.5 0.105263 0 0.5 0.105263 0 0.5 0.105263 
0 0.5 0.105263 0 0.5 0.105263 0 0.5 0.105263 
0 0.5 0.105263 0 0.5 0.105263 0 0.571429 0.105263 
0 0.571429 0.105263 0 0.571429 0.105263 0 0.571429 0.105263 
0 0.571429 0.105263 0 0.571429 0.105263 0 0.571429 0.105263 
0 0.571429 0.105263 0 0.571429 0.105263 0 0.571429 0.105263 
0 0.642857 0.105263 0 0.642857 0.105263 0 0.642857 0.105263 
0 0.642857 0.105263 0 0.642857 0.105263 0 0.642857 0.105263 
0 0.642857 0.105263 0 0.642857 0.105263 0 0.642857 0.105263 
0 0.642857 0.105263 0 0.714286 0.105263 0 0.714286 0.105263 
0 0.714286 0.105263 0 0.714286 0.105263 0 0.714286 0.105263 
0 0.714286 0.105263 0 0.714286 0.105263 0 0.714286 0.105263 
0 0.714286 0.105263 0 0.714286 0.105263 0 0.785714 0.105263 
0 0.785714 0.105263 0 0.785714 0.105263 0 0.785714 0.105263 
0 0.785714 0.105263 0 0.785714 0.105263 0 0.785714 0.105263 
0 0.785714 0.105263 0 0.785714 0.105263 0 0.785714 0.105263 
0 0.857143 0.105263 0 0.857143 0.105263 0 0.857143 0.105263 
0 0.857143 0.105263 0 0.857143 0.105263 0 0.857143 0.105263 
0 0.857143 0.105263 0 0.857143 0.105263 0 0.857143 0.105263 
0 0.857143 0.105263 0 0.928571 0.105263 0 0.928571 0.105263 
0 0.928571 0.105263 0 0.928571 0.105263 0 0.928571 0.105263 
0 0.928571 0.105263 0 0.928571 0.105263 0 0.928571 0.105263 
0 0.928571 0.105263 0 0.928571 0.105263 0 1 0.105263 
0 1 0.105263 0 1 0.105263 0 1 0.105263 
0 1 0.105263 0 1 0.105263 0 1 0.105263 
0 1 0.105263 0 1 0.105263 0 1 0.105263 
0 0 0.210526 0 0 0.210526 0 0 0.210526 
0 0 0.210526 0 0 0.210526 0 0 0.210526 
0 0 0.210526 0 0 0.210526 0 0 0.210526 
0 0 0.210526 0 0.0714286 0.210526 0 0.0714286 0.210526 
0 0.0714286 0.210526 0 0.0714286 0.210526 0 0.0714286 0.210526 
0 0.0714286 0.210526 0 0.0714286 0.210526 0 0.0714286 0.210526 
0 0.0714286 0.210526 0 0.0714286 0.210526 0 0.142857 0.210526 
0 0.142857 0.210526 0 0.142857 0.210526 0 0.142857 0.210526 
0 0.142857 0.210526 0 0.142857 0.210526 0 0.142857 0.210526 
0 0.142857 0.210526 0 0.142857 0.210526 0 0.142857 0.210526 
0 0.214286 0.210526 0 0.214286 0.210526 0 0.214286 0.210526 
0 0.214286 0.210526 0 0.214286 0.210526 0 0.214286 0.210526 
0 0.214286 0.210526 0 0.214286 0.210526 0 0.214286 0.210526 
0 0.214286 0.210526 0 0.285714 0.210526 0 0.285714 0.210526 
0 0.285714 0.210526 0 0.285714 0.210526 0 0.285714 0.210526 
0 0.285714 0.210526 0 0.285714 0.210526 0 0.285714 0.210526 
0 0.285714 0.210526 0 0.285714 0.210526 0 0.357143 0.210526 
0 0.357143 0.210526 0 0.357143 0.210526 0 0.357143 0.210526 
0 0.357143 0.210526 0 0.357143 0.210526 0 0.357143 0.210526 
0 0.357143 0.210526 0 0.357143 0.210526 0 0.357143 0.210526 
0 0.428571 0.210526 0 0.428571 0.210526 0 0.428571 0.210526 
0 0.428571 0.210526 0 0.428571 0.210526 0 0.428571 0.210526 
0 0.428571 0.210526 0 0.428571 0.210526 0 0.428571 0.210526 
0 0.428571 0.210526 0 0.5 0.210526 0 0.5 0.210526 
0 0.5 0.210526 0 0.5 0.210526 0 0.5 0.210526 
0 0.5 0.210526 0 0.5 0.210526 0 0.5 0.210526 
0 0.5 0.210526 0 0.5 0.210526 0 0.571429 0.210526 
0 0.571429 0.210526 0 0.571429 0.210526 0 0.571429 0.210526 
0 0.571429 0.210526 0 0.571429 0.210526 0 0.571429 0.210526 
0 0.571429 0.210526 0 0.571429 0.210526 0 0.571429 0.210526 
0 0.642857 0.210526 0 0.642857 0.210526 0 0.642857 0.210526 
0 0.642857 0.210526 0 0.642857 0.210526 0 0.642857 0.210526 
0 0.642857 0.210526 0 0.642857 0.210526 0 0.642857 0.210526 
0 0.642857 0.210526 0 0.714286 0.210526 0 0.714286 0.210526 
0 0.714286 0.210526 0 0.714286 0.210526 0 0.714286 0.210526 
0 0.714286 0.210526 0 0.714286 0.210526 0 0.714286 0.210526 
0 0.714286 0.210526 0 0.714286 0.210526 0 0.785714 0.210526 
0 0.785714 0.210526 0 0.785714 0.210526 0 0.785714 0.210526 
0 0.785714 0.210526 0 0.785714 0.210526 0 0.785714 0.210526 
0 0.785714 0.210526 0 0.785714 0.210526 0 0.785714 0.210526 
0 0.857143 0.210526 0 0.857143 0.210526 0 0.857143 0.210526 
0 0.857143 0.210526 0 0.857143 0.210526 0 0.857143 0.210526 
0 0.857143 0.210526 0 0.857143 0.210526 0 0.857143 0.210526 
0 0.857143 0.210526 0 0.928571 0.210526 0 0.928571 0.210526 
0 0.928571 0.210526 0 0.928571 0.210526 0 0.928571 0.210526 
0 0.928571 0.210526 0 0.928571 0.210526 0 0.928571 0.210526 
0 0.928571 0.210526 0 0.928571 0.210526 0 1 0.210526 
0 1 0.210526 0 1 0.210526 0 1 0.210526 
0 1 0.210526 0 1 0.210526 0 1 0.210526 
0 1 0.210526 0 1 0.210526 0 1 0.210526 
0 0 0.315789 0 0 0.315789 0 0 0.315789 
0 0 0.315789 0 0 0.315789 0 0 0.315789 
0 0 0.315789 0 0 0.315789 0 0 0.315789 
0 0 0.315789 0 0.0714286 0.315789 0 0.0714286 0.315789 
0 0.0714286 0.315789 0 0.0714286 0.315789 0 0.0714286 0.315789 
0 0.0714286 0.315789 0 0.0714286 0.315789 0 0.0714286 0.315789 
0 0.0714286 0.315789 0 0.0714286 0.315789 0 0.142857 0.315789 
0 0.142857 0.315789 0 0.142857 0.315789 0 0.142857 0.315789 
0 0.142857 0.315789 0 0.142857 0.315789 0 0.142857 0.315789 
0 0.142857 0.315789 0 0.142857 0.315789 0 0.142857 0.315789 
0 0.214286 0.315789 0 0.214286 0.315789 0 0.214286 0.315789 
0 0.214286 0.315789 0 0.214286 0.315789 0 0.214286 0.315789 
0 0.214286 0.315789 0 0.214286 0.315789 0 0.214286 0.315789 
0 0.214286 0.315789 0 0.285714 0.315789 0 0.285714 0.315789 
0 0.285714 0.315789 0 0.285714 0.315789 0 0.285714 0.315789 
0 0.285714 0.315789 0 0.285714 0.315789 0 0.285714 0.315789 
0 0.285714 0.315789 0 0.285714 0.315789 0 0.357143 0.315789 
0 0.357143 0.315789 0 0.357143 0.315789 0 0.357143 0.315789 
0 0.357143 0.315789 0 0.357143 0.315789 0 0.357143 0.315789 
0 0.357143 0.315789 0 0.357143 0.315789 0 0.357143 0.315789 
0 0.428571 0.315789 0 0.428571 0.315789 0 0.428571 0.315789 
0 0.428571 0.315789 0 0.428571 0.315789 0 0.428571 0.315789 
0 0.428571 0.315789 0 0.428571 0.315789 0 0.428571 0.315789 
0 0.428571 0.315789 0 0.5 0.315789 0 0.5 0.315789 
0 0.5 0.315789 0 0.5 0.315789 0 0.5 0.315789 
0 0.5 0.315789 0 0.5 0.315789 0 0.5 0.315789 
0 0.5 0.315789 0 0.5 0.315789 0 0.571429 0.315789 
0 0.571429 0.315789 0 0.571429 0.315789 0 0.571429 0.315789 
0 0.571429 0.315789 0 0.571429 0.315789 0 0.571429 0.315789 
0 0.571429 0.315789 0 0.571429 0.315789 0 0.571429 0.315789 
0 0.642857 0.315789 0 0.642857 0.315789 0 0.642857 0.315789 
0 0.642857 0.315789 0 0.642857 0.315789 0 0.642857 0.315789 
0 0.642857 0.315789 0 0.642857 0.315789 0 0.642857 0.315789 
0 0.642857 0.315789 0 0.714286 0.315789 0 0.714286 0.315789 
0 0.714286 0.315789 0 0.714286 0.315789 0 0.714286 0.315789 
0 0.714286 0.315789 0 0.714286 0.315789 0 0.714286 0.315789 
0 0.714286 0.315789 0 0.714286 0.315789 0 0.785714 0.315789 
0 0.785714 0.315789 0 0.785714 0.315789 0 0.785714 0.315789 
0 0.785714 0.315789 0 0.785714 0.315789 0 0.785714 0.315789 
0 0.785714 0.315789 0 0.785714 0.315789 0 0.785714 0.315789 
[...]
POINT_DATA 3000
FIELD FieldData 8
unknown 1 3000 double
7 7 7 7 7 7 7 7 7 
7 7 7 7 7 7 7 7 7 
7 7 7 7 7 7 7 7 7 
7 7 7 7 7 7 7 7 7 
7 7 7 7 7 7 7 7 7 
7 7 7 7 7 7 7 7 7 
7 7 7 7 7 7 7 7 7 
7 7 7 7 7 7 7 7 7 
7 7 7 7 7 7 7 7 7 
7 7 7 7 7 7 7 7 7 
7 7 7 7 7 7 7 7 7 
7 7 7 7 7 7 7 7 7 
7 7 7 7 7 7 7 7 7 
7 7 7 7 7 7 7 7 7 
7 7 7 7 7 7 7 7 7 
7 7 7 7 7 7 7 7 7 
7 7 7 7 7 7 7 1.7220035464 0.24975517919 
-0.25586851796 -0.46389705619 -0.56063649448 -0.60890845573 -0.63420825856 -0.65747930417 -1 7 3.7849169321 
1.7834140568 0.73486343279 0.196830781 -0.082881258546 -0.23069583398 -0.31050112216 -0.37610762254 -1 7 
4.9946741351 3.0807984657 1.7425870354 0.90661551151 0.40966902183 0.12179123178 -0.043558056374 -0.17028964937 -1 
7 5.7193685742 4.0933782558 2.6790558552 1.637389298 0.93659367833 0.49102080544 0.21678042868 0.010766731775 
-1 7 6.1610643339 4.8487386674 3.4918472832 2.3443707561 1.4830005233 0.88567305068 0.49205325542 
0.1930375694 -1 7 6.4339219951 5.3959110767 4.1617904529 2.9895399266 2.021412867 1.2953429061 
0.78517278882 0.38651534197 -1 7 6.6041609538 5.7839337964 4.6922079891 3.5495596973 2.5251791106 
1.7018196538 1.0883479039 0.59107580433 -1 7 6.7111006961 6.0545281803 5.098758313 4.0155883953 
2.9749217122 2.0866965233 1.3892661996 0.80092209565 -1 7 6.7785582612 6.2406047961 5.4020945673 
4.3897923567 3.3602386391 2.435595442 1.675454916 1.0079900446 -1 7 6.8211960319 6.3670027346 
5.6233006749 4.6812140444 3.6787173575 2.7397439385 1.9368727256 1.2043503539 -1 7 6.8481531866 
6.4519171583 5.781438623 4.9022195143 3.9337960218 2.995790044 2.1669981464 1.3836334066 -1 7 
6.8651735967 6.5083675081 5.8924807816 5.06588137 4.1323821176 3.2045880202 2.3627353211 1.5415232984 -1 
7 6.8758628627 6.5454051001 5.9689131558 5.1840061029 4.2823445872 3.3690775992 2.5230286082 1.6750348915 
-1 7 6.8823238723 6.5685921842 6.018682479 5.2640089235 4.387807836 3.4889119928 2.643636439 
1.7781948155 -1 7 6.8846768899 6.5771980673 6.0375520815 5.2949916379 4.4294821355 3.5371592832 
2.6930242052 1.8210231098 -1 7 1.5689538648 0.012848664024 -0.53386766465 -0.76245725345 -0.86982587385 
-0.92370691474 -0.95173648273 -0.96784382904 -1 7 3.6032699706 1.4477072226 0.30162885212 -0.29268191509 
-0.60384653916 -0.76900662302 -0.8576441676 -0.90910768098 -1 7 4.8410206028 2.7529061758 1.2780603207 
0.35006878234 -0.20431935147 -0.52649233724 -0.71069737065 -0.82167012348 -1 7 5.6025871282 3.8121389808 
2.2439329947 1.0831568115 0.29950534283 -0.1998739333 -0.5061150335 -0.70000161464 -1 7 6.0757913856 
4.6212090765 3.1100593668 1.8277011102 0.8627128347 0.19245788587 -0.24786420619 -0.54235624641 -1 7 
6.372183001 5.216273826 3.837503414 2.5246937029 1.4385904815 0.62311545237 0.051686264607 -0.35243233441 -1 
7 6.5589442146 5.6425658271 4.4201388502 3.138521461 1.9881123135 1.0627054538 0.37493454053 -0.13866804519 
-1 7 6.6770976118 5.9419212884 4.8700520452 3.6538181218 2.4842229489 1.4853676731 0.70294551293 
0.087707329303 -1 7 6.7520095326 6.1487763462 5.207417124 4.0698867037 2.9121359729 1.8719000505 
1.0187126756 0.31489731298 -1 7 6.7995334817 6.2897720605 5.4542797964 4.3950980515 3.2673214293 
2.2106376382 1.3091751993 0.53237815272 -1 7 6.8296601147 6.3847265492 5.6311807514 4.6423379471 
3.5525812856 2.4967400536 1.5659414393 0.73202910573 -1 7 6.8487185918 6.4479633103 5.7556070945 
4.8257366119 3.7750665216 2.7305341203 1.7848974792 0.90842357021 -1 7 6.8607045566 6.4895060736 
5.8413529777 4.9582585322 3.9432756474 2.9149569541 1.9644836041 1.0578658572 -1 7 6.8679562776 
6.515535863 5.8972302956 5.0480779908 4.0616571916 3.0494169168 2.099726826 1.1734560012 -1 7 
6.8705984868 6.5252007624 5.9184233622 5.0828738945 4.1084510323 3.1035702704 2.1551275547 1.2214649832 -1 
7 1.5639160654 0.0034859427499 -0.54609293208 -0.77642752394 -0.88482195806 -0.93929109765 -0.96761368586 -0.98306617801 
-1 7 3.5943682569 1.4289730331 0.27532381985 -0.32402285968 -0.63830252314 -0.80530526082 -0.89489378497 
-0.94474631196 -1 7 4.8313621049 2.7301893183 1.2435908275 0.3068168859 -0.25349256851 -0.57940048797 
-0.7656699978 -0.87438394148 -1 7 5.5938444261 3.7894828018 2.2068921537 1.0340885097 0.24156638122 
-0.26382303925 -0.57363858414 -0.76514925088 -1 7 6.0685335123 4.6007492579 3.0741975989 1.7775708778 
0.80112123864 0.12253190232 -0.32310733444 -0.6156328558 -1 7 6.3663993669 5.1987446432 3.8047646865 
2.4765168595 1.3770037686 0.55110688844 -0.027415826398 -0.43037404385 -1 7 6.5543942474 5.6279048386 
4.3911697619 3.0938231944 1.9287626815 0.99125687809 0.294755405 -0.21871751909 -1 7 6.6734923471 
5.9297082703 4.8447280533 3.6130678413 2.4282018115 1.4160370373 0.62350001874 0.007296533112 -1 7 
6.7490892335 6.1384923188 5.1852395311 4.0329100601 2.8597352629 1.8054132989 0.94102718908 0.23520830184 -1 
7 6.7970915769 6.280928752 5.4346292293 4.3613933903 3.2183395914 2.1471446848 1.2336940632 0.45398620322 
-1 7 6.8275431409 6.3769176219 5.6134575098 4.6112885804 3.5065597573 2.4360349391 1.4927128176 
0.65514580808 -1 7 6.8468173828 6.4408739711 5.7392952783 4.7967359453 3.731452325 2.6722238933 
1.7137268196 0.83301968939 -1 7 6.8589434625 6.4829026363 5.8260368016 4.9307683688 3.9015153563 
2.8585726744 1.8950436306 0.9837639925 -1 7 6.8662815286 6.5092412921 5.8825695758 5.021617912 
4.021204989 2.9944367294 2.0315893387 1.1003635106 -1 7 6.8689554268 6.5190214457 5.9040118602 
5.0568128621 4.0685146525 3.0491530468 2.0875204959 1.1487892879 -1 7 1.5637283644 0.0030751371923 
-0.54669160181 -0.77716273415 -0.88564852154 -0.94017516306 -0.96852834068 -0.98393453964 -1 7 3.5939448848 
1.4279685712 0.27378447545 -0.32597250154 -0.64053609262 -0.80772156676 -0.8974096394 -0.9471350722 -1 7 
4.8308050614 2.728750009 1.2412403623 0.30370290397 -0.25717162912 -0.58346227526 -0.76995167871 -0.8784635064 -1 
7 5.5932560952 3.7878389118 2.204031053 1.0301095961 0.23669628019 -0.26933378839 -0.57954016567 -0.77080835817 
-1 7 6.0679789354 4.5990872432 3.0711233886 1.7730814693 0.79541750534 0.11590076326 -0.33033855758 
-0.62262741815 -1 7 6.3659070331 5.1971749603 3.8016918077 2.4718114886 1.3707973605 0.54368587963 
-0.035666797593 -0.43843663861 -1 7 6.5539682367 5.6264716644 4.3882158055 3.0890941657 1.9222955691 
0.98330671894 0.28574126869 -0.22762181863 -1 7 6.6731240278 5.9284118225 4.841932275 3.6084085549 
2.4216137927 1.4077239595 0.61389594416 -0.0022923488235 -1 7 6.7487653041 6.1373097261 5.1825904728 
4.0283393445 2.8530792324 1.7968151067 0.93092274726 0.22502000427 -1 7 6.7967986269 6.2798289703 
5.4320896803 4.356884518 3.2116085118 2.1382727678 1.223112197 0.44322444023 -1 7 6.8272697748 
6.3758703543 5.6109826461 4.606794432 3.4997144937 2.4268612914 1.481634373 0.64379771485 -1 7 
6.8465548983 6.439854082 5.7368438914 4.7922073873 3.7244450577 2.6627068911 1.7021165988 0.82105690371 -1 
7 6.8586858108 6.4818918214 5.8235775406 4.9261669511 3.8943088407 2.8486818462 1.8828790411 0.97117090142 
-1 7 6.866025089 6.5082288554 5.8800859555 5.0169292263 4.0137978449 2.984192015 2.0189129864 
1.0871942604 -1 7 6.8686989823 6.5180065419 5.901514193 5.0520810547 4.0610135571 3.0387463007 
2.0746120916 1.1353597795 -1 7 1.5637200556 0.0030535669668 -0.54672781554 -0.77721245261 -0.88570911973 
-0.94024330483 -0.96860027698 -0.98400191142 -1 7 3.5939227801 1.4279080866 0.27367920093 -0.32612053983 
-0.64071933272 -0.80792953909 -0.89763019258 -0.94734161698 -1 7 4.8307696899 2.7286459083 1.2410481747 
0.30342052037 -0.25753198538 -0.58387921762 -0.77039818402 -0.87888204172 -1 7 5.5932098317 3.7876924671 
2.2037431951 1.0296656055 0.23610970552 -0.27002782357 -0.58029209931 -0.77151444519 -1 7 6.0679233636 
4.5988992553 3.0707313529 1.7724478864 0.79455154776 0.1148529928 -0.33148742699 -0.62370890811 -1 7 
6.3658419896 5.1969423376 3.8011813766 2.4709521664 1.3695867215 0.54219062463 -0.037325456777 -0.44000297996 -1 
7 6.5538920393 5.6261872333 4.3875660055 3.0879632133 1.920661111 0.98125118031 0.28343590535 -0.22980755273 
-1 7 6.6730342135 5.928066098 4.8411181792 3.6069543307 2.4194678118 1.4049823968 0.61078883686 
-0.0052525625842 -1 7 6.7486594095 6.1368932938 5.1815877781 4.0265116785 2.8503354804 1.7932611462 
0.92685401779 0.2211215605 -1 7 6.7966747771 6.2793345542 5.4308791842 4.3546424263 3.2081936509 
2.133794386 1.217934421 0.43823186061 -1 7 6.8271270118 6.3752941351 5.6095534696 4.6041122778 
3.4955781052 2.4213750053 1.4752302127 0.63758083391 -1 7 6.8463932896 6.4391962798 5.7351952535 
4.7890789402 3.7195672701 2.6561699325 1.6944154715 0.81352947828 -1 7 6.858506515 6.4811571745 
5.821720566 4.9226101375 3.8887101148 2.8411088408 1.8738811518 0.96231783303 -1 7 6.8658309888 
6.507429615 5.8780525561 5.0130061238 4.007575787 2.9757126849 2.0087675772 1.0771568342 -1 7 
6.8684984935 6.5171793597 5.8994041756 5.0479980854 4.0545179219 3.0298668644 2.0639572167 1.1247940659 -1 
7 1.5637182299 0.0030471288868 -0.54674163723 -0.77723491754 -0.8857392287 -0.94027817985 -0.96863610825 -0.98403318941 
-1 7 3.5939168394 1.427886895 0.27363335397 -0.32619544124 -0.6408200792 -0.80804652442 -0.89775058055 
-0.94744678191 -1 7 4.8307560496 2.7285963059 1.2409392305 0.30324049281 -0.25777624523 -0.58416472393 
-0.77069338546 -0.87914059936 -1 7 5.5931835388 3.7875951751 2.2035261638 1.029302271 0.23561139002 
-0.27061546458 -0.58090393518 -0.77205280188 -1 7 6.0678782658 4.5987299265 3.0703480804 1.7717976356 
0.79364908131 0.11377765827 -0.33261685658 -0.62470905109 -1 7 6.3657712985 5.1966735834 3.8005647167 
2.4698919471 1.3680968014 0.54039491943 -0.039230610509 -0.4417032651 -1 7 6.5537891626 5.6257917747 
4.3866469012 3.0863621209 1.9183821837 0.97847116131 0.28045377522 -0.23249261026 -1 7 6.6728936244 
5.9275202399 4.8398340321 3.6046884624 2.4162011122 1.4009477233 0.60641051661 -0.0092322593754 -1 7 
6.7484773332 6.1361798597 5.1798901014 4.0234788692 2.8459076718 1.7877241288 0.92077428092 0.21554099617 -1 
7 6.7964495578 6.2784446733 5.4287389099 4.3507737122 3.2024762997 2.1265573127 1.209894611 0.43077932681 
-1 7 6.8268591372 6.3742276893 5.606963166 4.5993782571 3.4885006835 2.4123110284 1.4650459209 
0.6280492725 -1 7 6.8460851699 6.4379613201 5.7321687736 4.7834915296 3.7111238108 2.6452370413 
1.681998305 0.80180108164 -1 7 6.8581623176 6.4797695423 5.818293217 4.9162255674 3.8789686247 
2.8283692137 1.8592693425 0.94840028791 -1 7 6.8654576353 6.5059175237 5.8742945405 5.0059551202 
3.9967337209 2.961419284 1.9922425924 1.0613093774 -1 7 6.8681127688 6.515614227 5.8955043952 
5.0406594291 4.0431974457 3.0148932663 2.0465890569 1.1080913658 -1 7 1.5637144434 0.0030336420812 
-0.5467702577 -0.77728023278 -0.88579785018 -0.94034331167 -0.96870001479 -0.98408651053 -1 7 3.5939042112 
1.4278418119 0.27353744385 -0.32634766996 -0.64101746576 -0.80826630708 -0.89796665479 -0.94762735937 -1 7 
4.8307259218 2.7284880533 1.2407072795 0.30286971698 -0.25826027209 -0.58470708885 -0.77122969482 -0.87959095158 -1 
7 5.5931239348 3.7873791238 2.2030586064 1.028547353 0.23461633347 -0.27174064614 -0.58202593179 -0.77300155969 
-1 7 6.067774911 4.5983514982 3.0695195245 1.7704438128 0.79184374658 0.11171349114 -0.33469650721 
-0.62648280778 -1 7 6.3656094081 5.1960745058 3.7992365116 2.4676932787 1.3651268988 0.53695686074 
-0.042735001001 -0.44472156889 -1 7 6.5535555071 5.6249178885 4.3846844673 3.083069435 1.9138740558 
0.97318330568 0.27499634018 -0.23724278812 -1 7 6.6725783209 5.9263288 4.837124555 3.600080633 
2.4098056292 1.3933445193 0.59846202932 -0.016226542632 -1 7 6.7480749627 6.1346446296 5.1763563871 
4.0173900462 2.8373423281 1.7774042752 0.90984593014 0.20581832985 -1 7 6.7959594605 6.2765579703 
5.4243467718 4.3431109516 3.1915566857 2.1132289359 1.195601093 0.41792447745 -1 7 6.8262849821 
6.3719995044 5.601721887 4.5901274162 3.475156567 2.3958206449 1.4471458722 0.61178214524 -1 7 
6.8454340941 6.4354165243 5.7261265424 4.7727137659 3.6954017091 2.6255829549 1.6604201257 0.7819977124 -1 
7 6.8574442414 6.4769456357 5.8115335609 4.9040554628 3.8610373388 2.8057205599 1.8341466375 0.92513769592 
-1 7 6.8646867001 6.502871234 5.8669556954 4.9926441946 3.9769641647 2.9362400413 1.9640799572 
1.0350434233 -1 7 6.8673196788 6.5124742589 5.8879199218 5.0268610342 4.0226362369 2.9886157185 
2.0170972837 1.0805042653 -1 7 1.563704846 0.0030008443534 -0.54683661909 -0.77738027378 -0.88592114254 
-0.94047400186 -0.96882263285 -0.98418495332 -1 7 3.5938723303 1.4277325711 0.2733157737 -0.3266827794 
-0.64143155022 -0.80870631118 -0.89838040399 -0.94796015201 -1 7 4.8306507608 2.7282285335 1.2401762696 
0.30206040664 -0.25926802017 -0.58578558781 -0.77225048299 -0.8804164851 -1 7 5.592977723 3.7868689991 
2.2020027527 1.0269196575 0.23256734849 -0.27395598428 -0.5841425269 -0.77472680572 -1 7 6.0675263677 
4.5974740412 3.0676789708 1.7675679983 0.78817622243 0.10769905054 -0.33857614557 -0.62967568035 -1 7 
6.3652283548 5.1947125878 3.7963389288 2.4630995692 1.3591845041 0.53036295638 -0.049189538702 -0.4500913 -1 
7 6.5530174233 5.6229712208 4.3804831041 3.0763087775 1.9049981788 0.96319202032 0.26508263796 -0.24558596234 
-1 7 6.6718676301 5.9237277284 4.8314322059 3.5907849561 2.3974195777 1.3791980342 0.58422946505 
-0.028347098493 -1 7 6.7471864254 6.1313575167 5.169067399 4.0053176112 2.8210229419 1.7584971195 
0.89055996377 0.18919885847 -1 7 6.794897705 6.2725915393 5.4154438035 4.3281684105 3.171078819 
2.0891754361 1.1707354045 0.3962479909 -1 7 6.8250626765 6.3673935018 5.5912688256 4.5723678876 
3.4505054471 2.366487541 1.4164341455 0.58471235009 -1 7 6.8440695266 6.4302354086 5.7142529064 
4.7523180682 3.6667600562 2.5910917941 1.6238780658 0.7494550083 -1 7 6.8559594578 6.4712719498 
5.7984216695 4.8813166624 3.8287763612 2.7664557997 1.7921033713 0.88734654948 -1 7 6.8631094639 
6.4968145107 5.8528667456 4.968026265 3.9417512735 2.8930160902 1.9174003253 0.99276949789 -1 7 
6.8657042015 6.5062581911 5.8734214402 5.0014488609 3.9861648767 2.9436894165 1.9684079491 1.0362741926 -1 
7 1.5636803771 0.0029212195219 -0.54698922483 -0.77759812019 -0.88617576203 -0.94073054447 -0.96905209626 -0.98436177851 
-1 7 3.59379147 1.4274685595 0.27280802586 -0.32740997939 -0.64228408643 -0.80956767519 -0.89915278675 
-0.94855659988 -1 7 4.8304629414 2.7276094625 1.2389738035 0.30032180206 -0.26132433041 -0.58788008244 
-0.77414246117 -0.88188647855 -1 7 5.5926196623 3.7856738124 2.1996496582 1.0234723433 0.22843929738 
-0.27820927391 -0.58802515012 -0.77777011529 -1 7 6.0669315667 4.595460534 3.0636531314 1.7615792024 
0.78089929806 0.10009773546 -0.34560356367 -0.63524313955 -1 7 6.3643381854 5.1916556352 3.7901273566 
2.453707467 1.3475904171 0.51806842096 -0.060716634905 -0.45933308113 -1 7 6.5517902807 5.6186979454 
4.3716597717 3.0627460221 1.8879818607 0.94486328038 0.24764257176 -0.25974564817 -1 7 6.6702839054 
5.9181402766 4.8197170088 3.5724855996 2.3740893553 1.3536717575 0.55957545568 -0.048622179182 -1 7 
6.7452488295 6.1244397111 5.1543540047 3.9819827526 2.7908104985 1.7249328142 0.85766283309 0.16179914247 -1 
7 6.7926278829 6.2644010491 5.3977953225 4.299781599 3.1337890166 2.0471430176 1.1289524092 0.36101736715 
-1 7 6.8224957419 6.358044524 5.5708889734 4.5391665136 3.4063057553 2.3159880105 1.3655619383 
0.54131589142 -1 7 6.841248253 6.4198781962 5.6914455631 4.7147388632 3.6161285219 2.5325260496 
1.5641526146 0.69795403673 -1 7 6.8529301176 6.4600773971 5.773558805 4.8399505955 3.7724578606 
2.7006008487 1.7242087393 0.82823465484 -1 7 6.859924442 6.4849855639 5.8264211496 4.923691873 
3.8808924574 2.8212346816 1.8427473549 0.92726892534 -1 7 6.8624557071 6.4941689066 5.8463208264 
4.9558745681 3.9233914243 2.8693853437 1.8908526197 0.96800979031 -1 7 1.5636177827 0.0027289119194 
-0.54733577791 -0.77806368532 -0.8866891502 -0.94122005106 -0.96946791011 -0.98466831675 -1 7 3.5935859074 
1.4268343134 0.27166023444 -0.32895795872 -0.64399710942 -0.81120621958 -0.90054863273 -0.94958806213 -1 7 
4.8299937898 2.7261446676 1.2362910807 0.29666305668 -0.26541470262 -0.59182898357 -0.7775345615 -0.88441050099 -1 
7 5.5917459159 3.7829033793 2.1944938924 1.0163326965 0.22034356247 -0.28612726383 -0.59490744564 -0.78294204694 
-1 7 6.0655174317 4.5909007712 3.0550141603 1.7494054692 0.76686602842 0.086160295016 -0.35788998004 
-0.64458675135 -1 7 6.3622776181 5.1848990524 3.7770887214 2.4349945361 1.3256364645 0.49589895666 
-0.080564325676 -0.47462672051 -1 7 6.5490228643 5.6094775902 4.3535445813 3.0362693967 1.8563618778 
0.91238329381 0.21809335133 -0.28283047146 -1 7 6.6667992534 5.9063586778 4.7961755011 3.5374712167 
2.3315407204 1.3092214841 0.51848045155 -0.081175877679 -1 7 6.7410810247 6.1101621317 5.1253803258 
3.9381797888 2.7366981631 1.6674758975 0.80370480272 0.11847002608 -1 7 6.7878437853 6.2478229178 
5.3636841172 4.2474384945 3.0681318787 1.9763546413 1.0614774251 0.30612270902 -1 7 6.8171813307 
6.3394466998 5.5321553858 4.4789360648 3.3297016233 2.232227838 1.284607257 0.47464403367 -1 7 
6.835496371 6.3995829483 5.648735955 4.6475521845 3.5296212268 2.4367332564 1.4703912004 0.6198632545 -1 
7 6.8468325744 6.4384180185 5.7275846349 4.7669177344 3.6774271323 2.5942050093 1.6189050582 0.73965448314 
-1 7 6.8535757932 6.4623211596 5.7779982073 4.8461869428 3.7792097316 2.706398487 1.7280808497 
0.83004424499 -1 7 6.8560062776 6.4710981302 5.796898315 4.8765252612 3.818936381 2.750995187 
1.772205279 0.86707988311 -1 7 1.5634568082 0.0022669411745 -0.54811163181 -0.77903742166 -0.88769605957 
-0.94212397585 -0.97019395761 -0.98517842574 -1 7 3.5930613009 1.4253203808 0.26910432798 -0.33218081608 
-0.64734363186 -0.81422155677 -0.90297851949 -0.95129988703 -1 7 4.8288214549 2.7227102354 1.2304077109 
0.28914514693 -0.27331473944 -0.59902349488 -0.78338747961 -0.88856646016 -1 7 5.589621156 3.7765594694 
2.1834174538 1.001924559 0.2049543282 -0.30035104966 -0.60663414486 -0.7913623018 -1 7 6.062178653 
4.5807297284 3.0368816586 1.725342815 0.7406808858 0.061537569663 -0.37851206113 -0.65959266217 -1 7 
6.3575544585 5.1702256247 3.7503755609 2.3988079673 1.2854788512 0.4574361815 -0.11333155695 -0.49881959191 -1 
7 6.5428562548 5.5899670121 4.3173061162 2.9861815475 1.7996814153 0.85707363261 0.17014197753 -0.31877171185 
-1 7 6.6592345269 5.8820285697 4.7501407623 3.4726231423 2.2567670006 1.2349159765 0.45293505134 
-0.13104880059 -1 7 6.7322432543 6.0813261287 5.0699044934 3.8586580108 2.6433822872 1.5731280408 
0.719081761 0.053135017839 -1 7 6.7779063117 6.2149976979 5.2996049071 4.1541381693 2.9568808406 
1.8620565098 0.95734285097 0.22460442043 -1 7 6.8063361604 6.3032528779 5.4606099383 4.3733294321 
3.2019645362 2.0990702309 1.1615304501 0.37705392929 -1 7 6.8239316046 6.3606618031 5.570988099 
4.5314383581 3.387413905 2.2865674196 1.3297842894 0.50706834532 -1 7 6.8347200116 6.3973806441 
5.644908551 4.64223949 3.5231158773 2.4294451644 1.462886057 0.6132129595 -1 7 6.8410777398 
6.4197706788 5.691727368 4.7151254965 3.6156776507 2.5302791759 1.5598177337 0.69257262685 -1 7 
6.8433561377 6.4279456001 5.7091818353 4.742867198 3.6516097384 2.5701481764 1.5987917762 0.72492715131 -1 
7 1.5630395271 0.0011632574284 -0.54982044378 -0.78102351339 -0.88960818609 -0.94373057726 -0.97140806872 -0.9859878995 
-1 7 3.5917145578 1.4217316403 0.26351093367 -0.33871921939 -0.65366982375 -0.81955992451 -0.90702797441 
-0.95400816441 -1 7 4.8258880469 2.7147410434 1.2177614627 0.2741239157 -0.28805452377 -0.61161687709 
-0.79304509308 -0.8950841657 -1 7 5.5844715679 3.7622371779 2.1601649826 0.97372100192 0.17675172208 
-0.32485876319 -0.62571546554 -0.80440421615 -1 7 6.0543539839 4.5584365605 2.9997979474 1.6793185725 
0.69367190403 0.019886198858 -0.4115182906 -0.68249162616 -1 7 6.3468417591 5.1389977901 3.6971748087 
2.3312348203 1.2149340891 0.39364225126 -0.16484595109 -0.53514021164 -1 7 6.529289285 5.5495898466 
4.2469653304 2.8948323328 1.7022503731 0.76715361093 0.096131203428 -0.37182218523 -1 7 6.6430421794 